/*--------------------------------*- C++ -*----------------------------------*\
  =========                 |
  \\      /  F ield         | OpenFOAM: The Open Source CFD Toolbox
   \\    /   O peration     | Website:  https://openfoam.org
    \\  /    A nd           | Version:  11
     \\/     M anipulation  |
\*---------------------------------------------------------------------------*/
FoamFile
{
    format      ascii;
    class       volScalarField;
    location    "2.2";
    object      gradTy;
}
// * * * * * * * * * * * * * * * * * * * * * * * * * * * * * * * * * * * * * //

dimensions      [0 -1 0 1 0 0 0];

internalField   nonuniform List<scalar> 
5712
(
11675.7
6732.76
18932
12409.5
20655.2
15290.8
32429.6
40190.1
42630.4
52161.7
27568.4
23953.3
17512.7
13879.2
8790.2
5945.74
19607
20057.1
16887.3
19838.7
26487.1
23651.4
30555.5
24729.7
8246.59
5942.83
4632.72
3442.08
9872.13
8041.38
5986.54
4836.09
17914.6
18608.2
18311
15475.3
14280.1
11147.1
11190.5
12705.3
18035.8
17944.2
37815.7
39087.8
26807.9
27607.8
15277.2
12883.7
16653.7
11876.1
7746.83
7948.91
6329.38
8800.42
3310.08
3973.95
8680.61
11821
5164.77
6010.45
9630.51
16078.1
6668.59
10884.2
2545.81
6477.29
2117.19
4835.82
17694.3
21848.5
18240
21746.3
21653.9
21873.8
22034.6
21581.3
15509.4
21004.2
15958.4
20753.4
17957.1
21589.9
17944.9
21534.9
22205.2
21296.6
22122.6
21088.7
14323.3
21087.8
13823.5
21159.9
17444.4
20424.4
22029.8
30664.3
18467.7
23539.9
21825.6
33247.3
16544.2
17999.6
22122.4
29509.7
16370.3
16852.5
22362.6
29299.5
5164.34
6735.31
13154.5
22868.8
6424.71
7290.24
16986.3
26088
8032.3
8108.4
21602
29250.5
24341.9
26181.7
20558.9
19826.7
28593.6
26377.4
24881.6
20991
18185.2
32610.6
24029.1
23696.4
21084.9
20904.9
37378.1
2007.28
2406.13
4280.44
9672.83
2855.72
3222.4
5940.93
10896.8
4276.31
3618.07
8114.13
12575.4
26164.4
25939.7
23574.9
23278.3
20154.8
18543.5
15246.6
13524.7
10711.7
14815.8
23799.6
23058.1
23958.3
23640.6
20793
19539.4
17170.6
15416.9
11435.1
15005.2
23700.3
26710.2
23621
27349.2
22937.7
23787.2
22376.5
23929
21515
21897.6
21343.2
21269.5
23429.4
27456.9
23315.7
27423.9
21713.4
24209.8
21527.3
24145.8
21597.4
21848.3
21587.4
21831.7
18082.4
17194.8
11648.8
12937.5
17951.9
16733.5
11466.1
12960.2
18339.2
17150.1
11906.1
13003.4
18413.8
16978.5
12277.9
13017.3
1646.61
1126.65
788.59
962.186
670.885
627.44
2285.38
1387.2
1059.23
1904.37
1543.75
1340.23
2675.97
2259.85
2280.67
3356.3
2767.45
2496.61
24917.3
22636.8
21018.1
22899.2
21347.7
20076.5
16415.1
15324.5
14728.6
11117.1
9715.1
9124.91
5110.96
3807.03
3241.68
22505.9
20968.3
19621.2
23060.1
21147.1
19629.4
17052.9
14759.6
13451.5
11106.9
8965.38
8093.6
5440.16
3792.93
3059.61
26907.1
26370.1
29277.4
26309.3
30126.1
26318.8
36334.1
27687.1
20884.9
21250.8
20613
19158.7
23431.8
22114.2
22989.4
19672.8
22754.2
22616
20982.2
22477
28021.9
25123
27689.4
28100.9
30040.6
31054.6
23065.3
23925.8
20667.6
20056
25145.8
25785.1
16422.3
8802.32
15331.6
9752.09
16661
8881.36
15281.3
9687.78
16446.1
8931.18
15247.9
10100.4
14821.2
10569.5
14995.1
10482.8
21133.4
18116.3
20984.6
18072.1
23306.8
21085.7
23510.3
20857.1
20571.7
15119.9
21490.4
14938.1
21429.5
17974.6
21690
17767.3
24093.6
20672.8
24099.4
20402.3
20352.9
15155.8
20284.9
15060.2
13506.9
8967.33
11979.6
7599.74
12603.9
8030.95
11523.9
7096.07
13828.5
9532.64
12166.3
7832.86
13841.5
9882.05
12133
7888.59
2557.21
1321.97
4635.17
2400.79
2736.69
1640.56
4946.13
2916.02
3386.75
2511.25
5496.73
3889.87
13187.3
20363.2
9502.43
9112.26
6393.34
19975.8
13963.5
8199.92
8240.46
5243.02
20732.2
16377
13052.6
10157.8
6209.52
694.646
529.999
1294.94
919.423
1014.53
704.33
1918.42
1512.62
1803.2
1428.86
2887.19
2342.93
20343
19818.4
13860.2
13407.1
9044.09
9233.81
7615.64
7111.76
4470.2
3673.87
19048.8
17442.8
14840.2
13160.3
11602.1
10443.7
8824.45
8102.88
5489.39
5539.6
15168.4
12420.5
15236.8
12091.6
18145.3
15174.4
18074.5
14919.6
12821.6
10548.7
12456.5
10613.3
15224.7
11885
15126.5
11861.4
17988.6
15178.2
17809.2
15125.5
13041.8
10369
13017.9
10506.5
10000.8
8607.09
6513.38
7016.89
9648.76
8439.6
6207.49
6662.31
10423.3
8770.72
6679.48
7438.62
10675.7
8772.06
6948.08
7547.81
1911.59
1690.47
1403.69
8344.82
4463.17
3653.2
1850.28
1836.67
1636
9022.43
5268.82
4474.67
2530.41
2855.64
2937.32
9927.64
6583.22
5879.24
18822.4
17723.3
16899.9
13016.3
12725.6
12521
9597.51
9563.03
9593.52
8339.59
8125.98
7954.57
11261.1
8119.76
7360.75
16027.4
14897.6
14113.6
12082.6
11353.6
10926.3
10175
9535.15
9153.92
9914.83
8866.71
8240.25
13675.6
9158.92
8257.59
4815.52
3047.58
2218.85
1941.12
5451.52
3328.63
2347.87
1987.47
4836.52
3040.82
2222.68
1955.89
5572.01
3397.73
2392.82
2008.3
4813.71
2999.46
2218.4
1941.04
5682.34
3437.29
2437.45
1999.63
6131.56
3651.42
2502.76
2090.1
6321.16
3799.29
2589.08
2174.5
5141.47
3198.68
2304.78
1961.92
4117.95
2758.66
2093.33
1885.76
4471.59
2873.75
2137.73
1818.84
3762.95
2587.74
2004.41
1806.94
5589.48
3443.73
2424.29
2056.57
4329.17
2883.58
2150.52
1948.48
5841.86
3609.72
2508.32
2122.78
4419.84
2972.47
2197.2
1982.59
3564.91
2581.22
2004.89
1837.63
2180.69
2017.36
1742.74
1726.19
3569.17
2564.07
1999.42
1832.22
2286.57
2045.84
1753.08
1735.78
3651.67
2556.07
2004.07
1837.84
2620.17
2143.61
1791.64
1779.3
3586.55
2478.07
1957.89
1871.11
2904.11
2209.32
1838.76
1765.03
3286.16
2388.12
1902.78
1778.57
746.176
1555.09
1362.91
409.838
-902.631
1294.22
1204.42
438.733
995.821
1636.93
1394.87
433.329
-584.829
1386.14
1232.5
448.362
1462.79
1781.46
1445.07
432.027
-48.7351
1540.72
1274.61
453.883
2030.4
1951.68
1514.95
470.03
515.163
1710.44
1333.76
473.86
2395.89
2104.96
1601.07
551.015
646.357
1835.84
1388.37
491.231
2555.56
2269.45
1641.1
522.057
278.228
1961.07
1488.22
521.42
2493.01
2196.54
1610.67
522.683
247.435
1902.68
1438.1
503.534
2569.82
2321.18
1668.18
485.252
206.19
2011.95
1523.17
524.813
2626.86
2376.76
1715.49
496.644
310.8
2070.01
1565.65
538.324
1822.66
1404.9
975.039
570.155
187.312
1801.9
1402.01
975.763
570.908
187.572
1844.98
1416
980.5
572.707
188.058
1829.04
1416.23
983.084
574.41
188.608
1887.23
1431.89
987.606
575.943
188.998
1862.63
1433.27
991.742
578.562
189.847
1891.5
1452.84
1003.21
584.396
191.626
1936.13
1481.15
1019.63
592.743
194.172
1930.65
1451.05
997.874
581.003
190.526
2061.95
1474.7
1004.61
583.524
191.22
1939.85
1446.14
992.908
578.183
189.632
2059.12
1466.2
999.115
580.667
190.333
1948.67
1468.29
1008.16
586.271
192.141
2099.4
1491.43
1013.98
588.281
192.68
1992.34
1495.74
1023.61
594.059
194.518
2145.81
1515.9
1027.35
595.013
194.742
1873.92
1412
974.995
569.551
187.084
1971.56
1419.9
975.206
569.2
186.946
1894.84
1420.75
979.056
571.401
187.616
1988.12
1426.49
978.303
570.62
187.357
1937.39
1435.44
985.461
574.303
188.451
2024.6
1438.48
983.823
573.168
188.092
2007.36
1452.4
991.958
577.152
189.265
2068.33
1451.38
990.136
576.124
188.938
2073.96
1461.14
995.648
578.853
189.762
9534.36
14636.4
10010.7
14936.2
10715.4
15330.1
11207.3
15589.3
10781.9
15016.5
10037.2
11299.1
10031.1
11811.5
10104.2
11219.1
10285.3
11363.9
8431.5
1442.2
307.701
68.9101
12.1875
9372.99
2665.74
646.45
146.46
25.8946
8525.74
1431.86
303.236
67.645
11.9308
9464.01
2656.4
641.63
144.664
25.356
8620.28
1427.59
299.707
66.5569
11.713
9544.36
2649.36
636.343
142.919
25.0107
8561.91
1387.33
288.588
63.9151
11.2395
9452.7
2598.87
621.823
139.402
24.3675
8141.35
1285.89
266.883
59.2801
10.447
8973.03
2471.12
593.107
133.328
23.3388
7279.53
1195.51
256.192
57.828
10.2684
7449.37
2151.38
529.947
121.08
21.3946
7527.53
1216.39
257.588
57.7787
10.2265
7879.05
2271.23
554.559
125.704
22.0948
7186.4
1191.66
256.567
58.0527
10.3183
7309.54
2098.85
517.489
118.608
21.0165
7163.22
1183.06
254.529
57.6168
10.2323
7322.26
2087.56
513.399
117.95
20.8663
33401.7
47307.4
46238.9
32424.7
19130.6
20124.8
28208.4
29450
22058
24704.7
35048
47772.4
44289.8
58630.7
28938.8
32965.2
22725.4
24265.6
12342.5
13527.9
4925.45
3266.6
884.592
685.576
770.229
676.982
820.94
4831.5
4788.36
2897.82
4076.96
3920.78
1708.39
2350.89
2141.54
1418.2
1632.12
1342.12
4351.49
2378.07
1533.78
1359.34
1719.66
1493.8
1175.81
1115.1
1051.24
925.447
1249.76
1129.61
4545.36
2771.83
3176.73
2034.77
1683
2355.44
1200.43
948.852
1317.76
10028.3
10155.2
10403.9
11733.1
19368.3
7247.88
8346.86
9172.18
10343.6
12077.4
2327.84
3329.4
4095.61
4620.81
4893.43
1817.72
2627.42
3257.9
3689.94
3910.65
2039.37
2940.47
3635.38
4106.29
4344.55
1796.58
2599.72
3225.06
3651.94
3868.76
2168.51
3116.68
3844.94
4339.74
4591.9
10171.7
10510.1
10421.9
11105.4
17406.8
10052.2
10206.5
9939.86
10213.5
11673.1
6669.54
7930.2
8594.22
9218.42
9964.58
8827.85
9298.22
9097.15
9058.53
9301.52
8482.82
9010.63
8782.6
8591.19
8607.08
4263.55
5649.89
6537.07
7108.78
7428.55
5595.84
6942.86
7665.36
8142.53
8481.06
5162.99
6504.7
7216.77
7613.55
7823.89
3617.65
4939.6
5836.9
6408.4
6701.24
4090.36
5444.44
6300.11
6820.11
7082.9
3444.24
4740.27
5630.03
6191.6
6471.17
9341.63
9987.54
10201
11149.7
17692.9
5663.7
7084.57
7986.01
8776.29
9565.41
3885.75
5263.14
6202.81
6834.87
7194.1
3483.12
4797.52
5734.05
6375.57
6735.04
4292.17
5711.01
6680.02
7390.05
7869.87
3796.58
5178.94
6167.53
6879.83
7313.75
3046.43
4267.03
5176.37
5814.15
6167.93
2904.47
4092.6
4974.27
5574.25
5890.71
2750.01
3893.52
4737.03
5293.18
5572.65
2434.67
3477.04
4263.72
4790.83
5057.5
3228.35
4490.22
5389.8
5981.21
6287.24
2939.34
4133.41
5009.96
5597.35
5902.59
9491.19
9902.54
10199.8
11418.4
18595.3
6353.83
7630.18
8549.99
9620.2
10965.7
7390.42
8694.22
9393.93
10477.1
12770.4
4967.27
6452.27
7507.92
8420.05
9182.17
4220.68
5664.89
6696.96
7491.3
8033.55
5619.56
7068.98
8039.68
8940.81
9852.33
3108.05
4346.43
5260.77
5894.68
6242.51
2491.34
3549.77
4349.16
4890.13
5168.17
3386.38
4685.93
5626.61
6280.13
6648.36
18340
12176.3
18896.4
13492.4
24501.5
34975.9
25602.7
34800.5
19431.5
20562.9
16671.3
19863.9
22086.5
21007.6
28105.2
23050.6
14129.6
13192.7
6922.82
5901.53
15401.9
14062.7
7953.09
6484.72
19041.4
20584.3
19527
17823.3
19892.4
13105.3
10986.7
12666.9
17938.7
17910.3
37261.4
38966.5
26064.9
27404.6
15856.7
13006.2
17322.2
11993
8394.95
8104.73
13856.6
15321.6
5798.83
6319.97
15253.9
17387.2
7235.46
7982.62
14560
20321.3
8456.57
13025.1
2958.62
7212.04
2199.48
4978.87
18105.3
20703
18045.3
21075.3
19765.5
20051.2
20821.9
20559.2
16462.1
20831.1
18672.6
20537
17748.7
21229.6
17864.1
21418
21579.5
20773.4
21938.1
20926.5
14595.8
20967.9
13863.4
21113.5
18324
21660
22252.6
30987
19956.9
25631.6
22318
33944.3
16939.9
18589.7
22200
29644.9
16470.7
17015.2
22374.5
29333.4
18997.8
20525.9
23803.8
35283.2
19122.5
19573.8
25483.1
35753.4
18856.9
18531.7
27435.8
35491.9
18310.5
19200.3
19552.4
20790
31218
18457.1
17234.9
20876.8
19012.9
35669.7
19256.6
20072.5
19900.2
21557.1
38593.7
11420.2
10457.2
10571.7
13656.1
12499.3
11462.3
10956.5
14039.2
13753.7
11938.8
11465.7
14358.5
17904.9
17234
16794.2
16352.8
19373.5
18134.2
15995.5
14412.8
12013.3
14988.4
18923.8
18725.8
20036.1
20183.5
19212.9
18095.3
17421.2
15479.3
11835.9
14501.8
21806.8
24552.5
22659.7
26186.6
20628.6
21543.7
21262.4
22819.3
20987
21216.6
20444.4
20180
22957.9
26891.4
23172.1
27255
21191.3
23670.7
21372.3
23988.1
21310.1
21497.4
21496.2
21726.3
17941.4
16919.8
11679.1
12845.4
17852.8
16425.4
11641.2
12879.7
18233.8
16985.4
11896.1
12938.1
18375.1
16924.8
12269.2
12992.5
9579.78
9724.29
4118.44
3794.46
10685.9
10340.3
4614.64
4417.04
10414.7
9761.75
5255.44
5074.15
16995
16492.8
16572.5
16646.7
16518.5
16020.3
12420.2
11121.3
6196.92
5118.49
19047.1
18282.9
20338
19552.7
16143.1
14973.9
11597.7
9970.56
5700.89
4291.56
22047.9
20975.9
27016.7
23617.3
24522.6
21871.8
33560.1
25332.3
20174.2
16661.7
21964.8
17471.1
20056.9
16944.7
22059.5
17697.7
20603.2
18277.8
18654.3
17364.9
21200.2
22455.3
26332.9
27687.6
28892.9
30720.9
21714.6
23447.9
19623.7
19757.7
23621
25271.5
13601.5
10033.2
14029.5
10260.3
13882.5
9943.27
14215
10108.6
13807.1
9794.78
14165.5
10301.7
14196.9
10609.3
14792.5
10489
17267.9
16794.5
19057.3
17255.5
19766.4
18960.5
21624.5
19673.3
18764.4
14816.8
17851.4
14648.6
20472.1
17540.2
21405.1
17635.5
23173.1
20075.4
23832.2
20221.6
19458.1
14965.3
20024.4
15000.9
13103.4
9386.59
12187.5
7980.41
12556
9104.87
12132.2
7902.64
13513.6
9688.05
12231.7
8010.48
13730.3
9919.08
12149.7
7946.44
13121.7
13340.9
9419.48
8676.42
13266
13455.1
9272.54
8603.5
13228.8
12925.7
9038.34
8503.13
15316.8
18028.4
16146.6
12034
8782.87
16735.6
15700.2
17590.7
12095.3
8485.49
18449.8
16400.1
14595.5
12264.4
7833.06
13993.5
15253.4
8647.62
9381.54
13841.6
14832.6
8566.39
9246.34
12911.2
13475.9
8185.61
8360.45
16578.2
15750
15032.2
14520.4
15664.3
16173.8
12256.5
13129
7939.11
7798.13
16788.6
15437.3
15184.5
13941.4
13713.4
13199.5
11625.7
11719.9
7314.08
7889.16
14862.9
12796.8
14929.2
12215.6
16753.9
14276.5
17275.9
14451.7
12988.3
11117.1
13078.8
11901.5
15030.3
11937.6
15065.9
11875.5
17588.2
14948
17689.7
15059.8
13061
10615.6
13010
10568.9
10504.5
9410.26
7006.13
7758.43
10796.5
10113.8
7181.37
8150.9
10624.4
9129.38
6908.52
7836.13
10733
8877.01
7026.03
7673.07
18277
18239.3
25153.9
21146
17517.4
17611.2
24111
20207
15364.8
16038.9
22119.5
18780.7
15301.4
14807.5
14153.2
13989.5
16439.3
16924.6
15284.5
15286.5
20292.4
17200.3
14476.2
13810.2
13355.9
13215.3
13695.8
14071.8
14746.9
14437.6
19850.2
15818.8
6310.92
4046.81
2825.93
2365.25
6562.31
4186.49
2909.56
2385.17
6190.79
3968.93
2776.73
2342.11
6499.77
4140.13
2877.54
2353.18
5970.86
3815.32
2701.21
2276.46
6402.48
4034.78
2842.02
2289.18
6552.37
4027.16
2777.94
2296.83
6462.02
3929.9
2681.93
2246.42
5747.22
3669.23
2635.91
2217.63
4523
3093.17
2325.72
2077.71
5423.08
3542.14
2565.78
2128.97
4424.41
3102.92
2312.58
2034.46
5924.44
3724.73
2632.77
2221.12
4547.93
3072.2
2296.86
2079.68
5945.65
3703.84
2580.11
2180.44
4488.77
3033.88
2247.29
2027.69
5784.33
3781.38
2669.87
2290.16
4901.58
3388.68
2464.32
2207.43
5625.04
3700.36
2622.11
2253.87
4791.78
3343.01
2439.07
2196.01
5400.93
3568.96
2561.77
2219.21
4710.89
3283.78
2407.99
2193.64
4928.66
3328.17
2434.8
2204.04
4530.28
3184.35
2359.01
2099.03
4266.34
3085.15
2284.22
2032.22
3591.39
2987.44
2032.16
567.803
1553.48
2728.95
1885.07
633.035
3631.5
2986.31
2031.82
587.776
1726.37
2733.24
1882.11
635.329
3702.95
2966.55
2008.78
559.706
1966.27
2721.63
1857.34
620.398
3666.05
2913.73
2011.27
589.473
1998.82
2675.72
1836.52
619.859
3391.74
2805.1
2002.63
668.757
1467.86
2562.6
1798.65
615.633
2857.6
2565.11
1886.13
612.535
420.318
2274.79
1706.87
597.084
3049.15
2667.72
1941.13
629.694
609.351
2398.77
1747.09
602.492
2719.5
2483.06
1817.52
543.151
253.619
2182.44
1651.7
571.331
2669.79
2428.31
1764.92
516.312
318.429
2123.3
1607.3
553.684
2150.77
1603.21
1086.16
625.585
204.042
2101.64
1590.26
1082.51
624.36
203.722
2149.62
1597
1081.78
623.22
203.304
2093.66
1580.67
1076.24
621.053
202.702
2165.4
1591.73
1076.62
620.294
202.383
2085.99
1569.63
1068.82
617.143
201.505
2045.23
1547.51
1056.93
611.334
199.771
1992.67
1516.85
1040
602.98
197.272
2135.79
1574.41
1066.79
615.391
200.91
2257.5
1584.61
1065.2
613.66
200.313
2200.67
1592.62
1073.84
618.441
201.777
2311.3
1598.21
1071.35
616.518
201.144
2084.26
1552.98
1055.81
610.103
199.344
2226.12
1565.96
1055.36
608.918
198.914
2039.31
1525.09
1040.21
602.385
197.041
2189.36
1541.86
1041.83
602.257
196.94
2246.14
1622.13
1090.51
626.861
204.357
2403.2
1639.15
1093.54
627.667
204.551
2250.74
1618.27
1087.43
625.154
203.817
2404.67
1635.71
1091.1
626.349
204.138
2269.02
1613.05
1082.56
622.443
202.961
2411.92
1629.02
1086.45
623.885
203.367
2318.78
1611.08
1078.19
619.87
202.139
2422.8
1619.19
1080.69
620.918
202.434
2371.68
1607.41
1075.18
618.266
201.642
11537.7
15189.6
11600.4
15200.5
11735.6
15205.6
11547.9
15025.5
10799.2
14292.2
10021.9
11217.5
10049.1
11661
10085.7
11171.4
10277.6
11348.1
8881.36
1478.28
310.789
69.0743
12.1672
9562.45
2705.33
651.608
146.805
25.8595
8845.81
1454.33
304.595
67.5671
11.8812
9522.71
2672.38
643.068
144.452
25.252
8735.79
1428.87
298.369
66.0978
11.6162
9416.68
2631.39
632.398
141.902
24.806
8492.73
1370.8
285.04
63.1467
11.1049
9181.8
2553.77
613.446
137.707
24.078
8013.64
1265.02
262.837
58.4446
10.3057
8690.43
2420.06
583.358
131.393
23.019
7232.51
1186.39
254.029
57.3217
10.1779
7385.49
2130.39
524.555
119.841
21.177
7453.93
1201.96
254.368
57.0658
10.1029
7759.29
2236.23
546.488
123.975
21.803
7159.23
1186.52
255.326
57.7535
10.2638
7275.51
2087.69
514.492
117.891
20.8871
7154.24
1181.38
254.122
57.5178
10.214
7311.28
2084.08
512.451
117.718
20.8238
32949.8
47007.3
45188.7
31064.4
24277.3
28916.2
23470.3
28804.4
27178.3
43106.5
28810.8
44137.1
218.295
234.995
272.184
332.483
420.4
541.299
232.366
249.542
287.644
348.85
436.293
553.724
207.7
202.481
225.409
221.954
264.976
265.641
329.647
338.357
422.856
442.086
544.783
566.893
701.623
908.45
1179.78
1543.04
1963.82
2266.78
704.95
892.756
1119
1374.77
1620.61
1780.34
584.453
857.351
1077.19
1231.11
1310.33
628.922
922.055
1157.86
1322.75
1407.55
727.977
1066.18
1337.52
1526.84
1624.07
888.315
1298.88
1626.93
1855.12
1972.1
1121.33
1635.43
2043.77
2326.67
2471.45
1439.91
2091.67
2604.95
2958.99
3140.08
621.95
911.997
1145.45
1308.79
1392.8
667.627
978.309
1227.95
1402.36
1491.99
768.953
1125.39
1410.91
1609.91
1712.04
931.399
1360.5
1702.66
1940.39
2062.22
1162.65
1693.45
2114.05
2405.24
2554.34
1471.38
2134.19
2655.07
3014.51
3198.77
556.139
815.981
1025.45
1172.19
1247.73
542.171
795.546
999.874
1143.05
1216.75
603.355
884.802
1111.38
1269.91
1351.45
594.12
871.323
1094.56
1250.78
1331.14
708.838
1038.49
1303.2
1488
1582.92
710.624
1041.16
1306.63
1491.99
1587.18
880.966
1288.66
1614.72
1841.62
1957.94
904.206
1322.6
1657.17
1889.91
2009.18
1128.27
1646.38
2058.23
2343.53
2489.44
1179.43
1720.63
2150.46
2447.9
2599.85
1450.03
2108.01
2626.54
2983.74
3166.03
1508.83
2193.16
2731.73
3101.92
3290.39
1857.92
2681.3
3321.96
3762.56
3989.04
2387.18
3408.74
4191.16
4731.61
5015.22
3059.45
4292.74
5218.78
5873.39
6237.55
3912.35
5334.12
6379.1
7167.53
7669.65
4824.28
6323.63
7409.11
8327.97
9046.56
5452.65
6962.25
8051.77
9060.59
9954.58
1865.19
2688.92
3329.42
3770.87
3998.59
2347.06
3353.91
4126.81
4661.69
4942.37
2914.81
4114
5021.13
5658.06
6004.72
3536.84
4911.85
5936.78
6678.44
7108.61
4112.43
5612.43
6717.86
7552.12
8076.54
4478.21
6045.04
7194.62
8089.89
8683.43
221.022
243.288
286.585
353.833
449.793
579.933
235.17
258.059
302.301
370.234
464.948
589.748
210.445
205.32
233.831
230.716
279.744
281.145
351.888
362.071
453.92
475.037
587.241
613.193
749.058
960.679
1229.76
1580.67
1983.87
2272.47
747.102
937.71
1161.52
1408.74
1641.73
1787.37
591.77
868.154
1090.89
1246.88
1327.17
651.26
955.145
1199.86
1371.15
1459.3
766.808
1123.81
1410.82
1611.45
1714.63
946.002
1384.8
1736.6
1982.08
2108.21
1201.05
1754.85
2197.09
2505
2663.11
1545.28
2250.94
2811.22
3200.56
3400.72
629.49
923.16
1159.63
1325.14
1410.28
690.592
1012.39
1271.29
1452.38
1545.52
808.52
1184.23
1485.89
1696.6
1804.91
989.248
1446.83
1813.07
2068.42
2199.6
1240.43
1810.15
2264.12
2580.02
2742.33
1569.64
2282.78
2847.63
3240.15
3442.29
563.51
826.864
1039.23
1188.03
1264.65
549.796
806.799
1014.11
1159.41
1234.23
626.02
918.335
1153.89
1318.85
1403.75
617.689
906.175
1138.72
1301.6
1385.43
748.629
1097.48
1378.14
1574.44
1675.39
752.389
1103.06
1385.26
1582.64
1684.15
941.033
1378.06
1728.74
1973.54
2099.3
968.27
1417.99
1778.89
2030.8
2160.19
1212.54
1772.66
2220.41
2532.21
2692.26
1268.96
1855.17
2323.73
2649.91
2817.25
1565.94
2283.44
2854.03
3250.41
3453.87
1635.5
2385.55
2982.07
3396.18
3608.5
1988.5
2881.44
3584.65
4073.42
4326.37
2533.16
3637.48
4497.4
5099.53
5417.88
3203.13
4526.4
5541.41
6270.06
6677.61
4026.97
5532.83
6666.27
7532.83
8084.29
4892.39
6452.57
7604.37
8585.57
9348.09
5474.3
7006.24
8120.46
9153.43
10065.6
1981.01
2866.03
3561.42
4045.03
4295.88
2471.93
3547.93
4384.71
4969.95
5278.81
3034.88
4304.85
5279.89
5972.09
6350.53
3635.13
5072.9
6160.5
6955.07
7416.88
4175.44
5719.14
6869.55
7743.12
8292.17
4499.68
6082.2
7248.2
8158.13
8761.11
4907.5
3265.83
947.278
739.137
843.789
736.805
890.256
4515.53
4353.45
2847.72
3596.34
1777.37
2338.63
1503.48
1663.4
1411.29
4210.99
2403.83
1616.77
1442.74
1789.63
1563.92
1238.92
1193.46
1149.96
1016.12
1342.42
1217.26
4492.97
2778.5
3148.89
2067.75
1737.65
2382.7
1272.6
1026.03
1395.48
10027.5
10210.5
10509.7
11905.2
19683.6
7262.98
8396.76
9260.5
10474.1
12248
2503.67
3606.4
4468.14
5069.62
5385.17
1965.3
2854.04
3555.88
4042.95
4293.88
2243.44
3257.06
4055.69
4607.97
4891.42
1961.47
2853.06
3558.33
4046.94
4297.66
2362.05
3419.64
4250.06
4825.58
5122.71
9987.92
11180.2
11900
13353.9
20938.6
9841.36
11248.7
12169.6
13484.4
15760.9
6805.79
8626.65
9939.17
11151.4
12294.3
8625.89
10462.1
11495.1
12565.5
13501.8
4553.39
6290.94
7576.37
8497.22
9025.43
5801.68
7689.88
9036.73
10067.4
10740.9
3913.84
5519.72
6731.03
7574.3
8027.21
4302.46
6015.2
7290.38
8180.76
8665.7
3692.69
5242.53
6419.49
7232.24
7660.22
9268.2
10388.5
11122.8
12580.5
20055
5857.29
7614.71
8911.4
10068.8
11113.5
4170.75
5816.7
7053.77
7945.16
8459.55
3744.55
5265.92
6423.8
7255.84
7728.66
4543.2
6215.02
7468.36
8432.2
9071.77
4018.95
5582.09
6766.5
7650.56
8189.63
3230.73
4572.85
5605.07
6346.18
6760.8
3133.23
4472.13
5505.83
6232.28
6621.79
3036.53
4365.73
5395.51
6106.11
6474.38
2690.77
3884.45
4816.26
5460.41
5793.23
3515.37
4998.46
6132.3
6922.74
7344.68
3198.48
4569.73
5627.09
6365.42
6757.76
9490.46
10076.8
10537.2
11956.1
19574.9
6411.2
7782.86
8809.85
9991.47
11434.3
7447.86
9007.34
10002.1
11390.6
14004.3
5090.65
6704.8
7907.37
8959.28
9820.18
4400.28
6001.05
7206.33
8157.21
8799.96
5777.75
7473.96
8738.89
9921.67
11037.4
3321.36
4705.5
5769.1
6528.94
6950.73
2711.1
3902.98
4831.84
5477.73
5815.19
3623.91
5100.82
6228.52
7042.4
7506.02
9567.22
9021.62
8067.11
6726.99
4894.15
1917.24
18667.1
19011.8
21576.4
22257.5
18307.2
19420.3
20637.1
20000.9
15316.1
18860.3
15972.9
19419.1
18328.3
16529.3
25589.7
17956.8
18163.2
20375.7
20817.7
17337.5
18433
19741
19303.9
15254.1
22770.7
15825.5
22660
18504.8
20080
27452.6
17162.8
17242.2
18850.1
19050.3
16620.4
18110.1
18543.7
18597.4
17495.5
20160
18255
20174.8
20095.5
22094.7
24729.6
16414.6
16512.9
17475.3
17518.9
16203.4
17927.7
17338.1
17663.3
16407
17641.8
17139.9
17203.5
18388.2
19887.6
21395.8
15629.1
15760.8
16543.3
16503.7
15915.8
17793.8
16551.5
17060.5
15545.1
14580.2
16304.9
14010.9
16925.6
16790.1
17701.7
15284.9
15459
15927.3
15855.7
15545.1
17103.8
16048.5
16478.9
14851.8
12553.9
15420.7
12311.1
15764.6
14785.7
16050
21507
20685
22541.4
23671.6
19949.1
19938
21011.8
20074.1
19021.2
14150.6
18983.2
14228.7
16870.5
15315.1
18449.2
20310.3
19718.2
20848.2
21588.1
19277.2
19429.3
19836.2
19051.4
17658.3
13722.9
17648
13819.8
15492
13828
17109.4
18743.3
18396.5
18822.6
19178
18147.4
18313.5
18322.2
17854.1
16798.8
13485.2
16604
13226.3
14908.1
12675.6
16833.2
17272.3
17078
17277.4
17432.8
16918.1
17026
17109.6
16742.8
15892.2
13936.8
15792.7
13619.2
14344.1
12765.6
17181.8
16520.5
16394.2
16427.8
16497.4
16102.9
16205.6
16396.8
16170.1
15706.8
15023.7
15643.8
14875.4
14461.2
13292.6
17781.6
15983.4
15866.4
15941.1
15982.3
15626.8
15910.3
15886.6
15797.1
15629.4
15708
15626.1
15625.5
14571.5
13830.9
18500.2
11485.7
6517.49
18924.8
12416.6
20676.5
15278.3
32457.7
40203.9
42680.9
52186.8
27617.9
23953.8
17520.3
13905.2
8526.57
5674.41
19610.1
20059.4
16885.9
19839.7
26500.2
23657.1
30563.9
24734.1
8077.44
5824.69
4476.73
3338.46
9844.65
8031.67
5985.01
4849.6
17909.8
18603.5
18309.5
15475.7
14275.9
11150.1
11191.5
12706.7
18037.4
17945.9
37822.7
39092.6
26811.2
27610.2
15278.1
12885.2
16655.3
11877.5
7747.97
7950.01
6216.44
8661.52
3221.69
3876.29
8682.35
11833.2
5179.02
6027.08
9631.69
16084.2
6674.73
10892
2547.17
6480.31
2117.67
4836.98
17695.4
21849.6
18241.4
21747.4
21656.7
21875.3
22037
21582.4
15511.3
21005.3
15958.6
20754.3
17958.4
21590.8
17946
21535.8
22207
21297.5
22123.8
21089.3
14324.7
21089
13824.6
21161.1
17446.3
20428.2
22031.6
30666.9
18469.2
23543.8
21827.3
33250.3
16546
18002.3
22124
29512
16372.1
16854.7
22364.2
29301.7
5081.36
6653.8
12979.1
22677.9
6430.24
7294.06
17001.8
26106.7
8034.79
8110.49
21608.9
29257.7
24342
26182.5
20558.6
19827.9
28597.6
26377.9
24881.5
20990
18185.8
32614.9
24030
23696.9
21085.5
20906.5
37381.6
1966.43
2374.64
4193.1
9580.01
2860.13
3226.71
5952.52
10906.6
4278.32
3619.24
8117.91
12577.8
26164.6
25939.7
23574.7
23278.2
20154.2
18543.2
15247.4
13525.4
10713.6
14817.1
23800
23058.2
23958.5
23640.7
20793.5
19539.8
17171.7
15417.8
11436.4
15006.2
23700.9
26710.4
23621.6
27349.5
22938.2
23787.2
22376.9
23929.1
21515.8
21898.1
21343.9
21270
23429.9
27457.2
23316.1
27424.1
21713.8
24209.8
21527.5
24145.8
21598.2
21848.8
21588.1
21832.2
18083.3
17195.5
11649.6
12938.2
17952.9
16734.4
11467
12961
18340.1
17150.8
11906.8
13004
18414.7
16979.1
12278.6
13017.9
1624.16
1109.16
774.168
957.676
665.378
620.886
2292.18
1390.84
1060.84
1910.72
1547.78
1342.56
2676.54
2260.59
2281.49
3357.32
2768.84
2497.97
24917.3
22637.1
21018.4
22899.4
21348.2
20077.2
16415.4
15325.3
14729.4
11117.7
9715.92
9125.82
5111.62
3807.79
3242.4
22506
20968.6
19621.5
23060.4
21147.6
19630.1
17053.3
14760.2
13452.2
11107.5
8966
8094.26
5440.64
3793.39
3060.02
26911.6
26371.4
29280.5
26310.6
30140.3
26324.4
36346.6
27692
20709
21197.8
20405.9
19094.5
23401.2
22086
22955.3
19645.4
22748.9
22611.5
20982.1
22475.3
28005.1
25108
27690.4
28101.2
30044.3
31056.7
23063.5
23924.9
20666.8
20055.1
25138.5
25781.7
16426.7
8807.38
15329.6
9759.08
16642.2
8876.5
15265.4
9684.08
16434
8926.6
15237.3
10095.7
14815.3
10565.9
14992.1
10480.6
21131.7
18115.9
20983.5
18071.8
23308.8
21086.6
23512.2
20857.7
20566.4
15118.6
21483.6
14936.6
21429
17974.3
21689.5
17766.8
24094.9
20673.2
24100
20402.4
20349.7
15154.8
20283
15059.3
13503.8
8964.9
11978
7598.49
12600.5
8028.56
11522
7094.69
13826.2
9530.61
12164.9
7831.8
13839.9
9880.53
12132
7887.72
2544.34
1305.82
4620.54
2382.07
2737.17
1641.65
4946.06
2916.9
3385.89
2511.12
5495.21
3889.29
13188
20364.4
9502.06
9110.75
6391.88
19976.7
13963.8
8199.83
8239.36
5242.08
20732.9
16377
13051.6
10156.3
6208.33
677.08
509.102
1275.16
909.24
1015.9
704.135
1918.7
1512
1803.48
1429.51
2887.14
2343.39
20343.3
19818.3
13860
13406.7
9043.74
9233.29
7614.99
7111.48
4469.7
3673.8
19049.1
17442.8
14840.1
13160.1
11601.5
10443.3
8823.58
8102.42
5488.62
5539.13
15168.1
12420.2
15236.6
12091.3
18145.7
15174.5
18074.8
14919.6
12820.9
10548.1
12455.7
10612.8
15224.4
11884.7
15126.2
11861.1
17988.7
15178.2
17809.2
15125.4
13041.2
10368.5
13017.3
10506
9999.88
8606.47
6512.61
7016.22
9647.76
8438.97
6206.66
6661.64
10422.6
8770.14
6678.81
7437.97
10675
8771.53
6947.48
7547.23
1877.71
1662.12
1380.96
8297.62
4421.49
3613.25
1847.5
1835.4
1636.01
9018.64
5268.64
4474.9
2531.07
2856.13
2937.71
9927.65
6583.73
5879.86
18822.3
17723.3
16899.9
13015.9
12725.2
12520.6
9596.9
9562.47
9593.08
8339.38
8125.76
7954.36
11260.7
8119.82
7360.93
16027.3
14897.6
14113.6
12082.3
11353.3
10926.1
10174.6
9534.88
9153.71
9914.41
8866.49
8240.1
13674.7
9158.68
8257.54
4815.63
3047.39
2218.78
1940.49
5449.95
3326.84
2346.99
1986.42
4835.34
3040.32
2222.33
1955.67
5571.32
3397.45
2392.6
2008.11
4812.43
2998.96
2218.09
1940.83
5681.05
3436.83
2437.17
1999.42
6130.28
3650.94
2502.5
2089.92
6320.17
3798.87
2588.86
2174.33
5140.43
3198.21
2304.5
1961.73
4117.26
2758.27
2093.08
1885.57
4470.59
2873.27
2137.45
1818.65
3762.23
2587.34
2004.16
1806.76
5588.5
3443.27
2424.03
2056.39
4328.55
2883.21
2150.29
1948.3
5841.05
3609.32
2508.09
2122.61
4419.31
2972.14
2197
1982.43
3563.78
2581.47
2005.35
1837.19
2178.14
2016.78
1743.1
1725.23
3568.35
2563.62
1999.08
1832.01
2285.93
2045.53
1752.83
1735.68
3650.8
2555.63
2003.78
1837.66
2619.55
2143.26
1791.39
1779.16
3585.77
2477.66
1957.61
1870.91
2903.47
2208.96
1838.52
1764.86
3285.5
2387.73
1902.52
1778.36
745.57
1554.57
1363.55
409.906
-901.627
1292.74
1204.06
438.56
995.245
1636.8
1394.68
433.313
-585.494
1386.2
1232.51
448.389
1462.37
1781.21
1444.9
431.981
-49.0014
1540.55
1274.51
453.858
2029.96
1951.37
1514.75
469.976
514.94
1710.18
1333.6
473.813
2395.42
2104.62
1600.86
550.949
646.141
1835.54
1388.19
491.173
2555.14
2269.12
1640.89
522.001
278.082
1960.78
1488.03
521.359
2492.55
2196.2
1610.45
522.625
247.27
1902.37
1437.91
503.473
2569.45
2320.88
1667.99
485.203
206.073
2011.68
1523
524.758
2626.55
2376.5
1715.33
496.602
310.698
2069.78
1565.5
538.274
1821.23
1404.23
974.752
570.03
187.275
1800.31
1401.18
975.374
570.731
187.52
1844.92
1415.93
980.458
572.689
188.053
1828.93
1416.15
983.044
574.395
188.607
1887.13
1431.82
987.567
575.926
188.994
1862.51
1433.19
991.699
578.546
189.845
1891.37
1452.76
1003.17
584.377
191.621
1936.01
1481.07
1019.59
592.723
194.167
1930.51
1450.97
997.83
580.984
190.522
2061.78
1474.61
1004.56
583.503
191.214
1939.72
1446.06
992.866
578.165
189.627
2058.96
1466.12
999.07
580.647
190.328
1948.53
1468.21
1008.12
586.25
192.136
2099.23
1491.34
1013.93
588.259
192.674
1992.2
1495.66
1023.56
594.037
194.512
2145.65
1515.81
1027.31
594.99
194.735
1872.46
1411.42
974.767
569.454
187.055
1970.17
1419.43
975.016
569.123
186.927
1894.81
1420.68
979.015
571.386
187.613
1988.11
1426.41
978.258
570.607
187.358
1937.29
1435.37
985.422
574.287
188.448
2024.5
1438.41
983.781
573.154
188.091
2007.23
1452.32
991.915
577.134
189.26
2068.18
1451.31
990.094
576.106
188.935
2073.8
1461.06
995.604
578.833
189.757
9484.22
14580.2
10013.1
14938
10717
15330.9
11208.3
15589.9
10782.7
15017.1
10037.8
11299.7
10031.8
11812.2
10104.8
11219.7
10285.9
11364.5
8420.7
1432.61
305.227
68.3412
12.0869
9357.5
2659.85
644.758
146.055
25.8204
8523.21
1432.47
303.352
67.6634
11.9331
9462.36
2655.78
641.411
144.602
25.3439
8619.7
1427.65
299.716
66.5552
11.7122
9543.94
2649.16
636.262
142.893
25.0051
8561.97
1387.35
288.587
63.9128
11.2388
9452.76
2598.82
621.797
139.392
24.365
8141.63
1285.93
266.887
59.2799
10.4468
8973.27
2471.15
593.106
133.325
23.3379
7279.9
1195.57
256.203
57.8303
10.2687
7449.74
2151.48
529.968
121.084
21.3952
7527.88
1216.44
257.597
57.7801
10.2267
7879.4
2271.3
554.573
125.705
22.0949
7186.78
1191.72
256.58