/*--------------------------------*- C++ -*----------------------------------*\
  =========                 |
  \\      /  F ield         | OpenFOAM: The Open Source CFD Toolbox
   \\    /   O peration     | Website:  https://openfoam.org
    \\  /    A nd           | Version:  11
     \\/     M anipulation  |
\*---------------------------------------------------------------------------*/
FoamFile
{
    format      ascii;
    class       volScalarField;
    location    "2.2";
    object      gradTz;
}
// * * * * * * * * * * * * * * * * * * * * * * * * * * * * * * * * * * * * * //

dimensions      [0 -1 0 1 0 0 0];

internalField   nonuniform List<scalar> 
5712
(
7223.49
23736.3
5731.46
24341.4
4306.72
25186.3
6804.76
38860.3
8363.5
53439.7
8297.19
38902.6
7999.55
32275.4
8313.79
28830.9
5030.8
3104.38
13447.2
7969.53
4933.23
2657.9
14735.4
7313.46
5490.84
3968.46
17611.9
12363.3
4152.07
2977.18
17324.4
12559.2
9734.58
4117.37
8399.15
3738.08
3856.03
9069.03
33726.8
9147.22
12071.9
4091.89
43482.4
11815.6
11319.5
3924.4
24063.5
7472.01
12346.4
4312.4
20902.8
6650.39
5831.94
2891.5
8661.31
3368.03
6309.02
3412.5
8449.96
3234.96
8025.93
4570.13
7282
3156.35
10799.2
3875.35
3717.72
1296.17
12213.3
8450.14
7566.67
5524.25
13704.3
11271.8
7492.94
6484.71
7150.4
4816.83
10050.5
6703.11
4993.32
3667.02
2544.55
2086.29
4836.79
4178.58
2511.99
2421.87
4779.55
3126.28
2455.18
1572.25
6375.28
3460.94
4767.08
5766.86
8703.97
6190.97
6887.55
9851.67
4226.49
1998.79
2815.88
3306.97
2103.13
871.637
1218.83
1226.81
7644.59
13719.6
5192.93
15326.9
8976.79
13441.1
6393.89
16064.4
10218.3
12184.9
8250.49
15707.6
12174.5
14589.8
9093.01
8750.03
9590.13
14568.7
13397.2
13095.9
13398.9
19370.9
11840.2
9062.2
7804.81
8736.54
13739.4
15860.6
14135.8
18404.9
17655.8
14522.8
13436.9
18189.7
17297.9
12575.1
12242.1
17078
16682.6
10622.3
8315.48
9825.62
8526.39
10693.7
9511.53
11456.7
10952
15751
16071.1
9933.78
8576.75
9427.37
9002.41
9683.49
10199.9
10878.4
12151.3
14198.3
16348.4
8192.91
6429.63
5634.57
7181.41
11121.2
13567.2
7719.53
12223.3
4757.39
6268.58
7075.17
5827.22
1358.5
4770.46
711.314
1717.48
3947.87
8226.11
1463.82
2856.15
635.926
4033.31
362.248
1415.14
4666.23
4742.09
5302.16
3284.25
7376.84
5890.91
8676.03
5966.96
1079.9
2596.93
2628.94
1489.04
1471.47
1911.27
2084.23
1573.4
11232
6811.45
2138.33
12723.5
7288
2383.39
10771.6
6740.22
2269.93
12533.2
7299.05
2381.71
9911.84
6187.46
2030.74
12241.1
7340.65
2450.18
5414.76
2917.41
784.446
6891.67
4529.81
1574
8190.94
5646.16
1945.71
9450.34
6105.76
2024.76
12132.4
7548.92
2639.42
6442.37
3606.89
1139.35
6465.64
4645.68
1749.85
7649.59
5647.52
2070.33
9563.4
6703.17
2393.26
12267.7
7635.9
2705.27
298.961
2009.6
2840.83
4102.83
2172
2496.97
5458.98
5182
602.29
1036.01
643.107
1079.23
488.435
1418.11
871.395
1860.13
3227.79
1578.91
4081.31
2359.02
2176.54
3799.21
3403.76
948.523
6061.26
1491.01
-1893.03
740.912
1796.99
1349.43
1252.83
1166.96
9857.91
4554.51
2695.62
1685.46
10012.8
4736.8
3390.43
2131.81
9886.34
5101.14
4924.13
3483.79
3529.76
2559.55
1760.28
1691.58
12608
11215.4
5942.19
6171.5
13504.5
12680.6
6666.53
6726.65
5313.16
5474.98
10886.9
9113.85
3555.03
3720.8
2000.68
2268.79
4115.44
4091.24
2272.16
2431.09
3120.87
3364.73
1764.82
2161.45
4766.68
3377.3
4769.67
3435.74
7413.06
4455
7091.91
4750.77
2884.55
2449.71
3024.61
2225.92
1628.04
1544.95
1929.31
1309.87
11720.9
8256.93
5979.29
6139.56
11671.8
8447.42
6014.55
6110.28
12104.9
8760.8
6100.81
5935.97
13832
14851.8
12690.1
8565.66
4959.31
14072.6
13114.8
12288.7
10255.4
6767.53
13196.7
11997.9
9663.23
7522.88
4801.89
7100.07
6381.99
6689.56
7721.13
7301.48
6256.08
6748.46
7613.71
7580.8
6185.24
6803.84
7497.62
10620.6
7489.44
9989.81
6970.89
7952.96
6467.83
7535.87
6513.1
6306.8
7419.5
8819.91
7651.8
7865.66
6888.52
6792.46
6200.21
6090.42
6109.23
4978.53
7062.13
7031.98
4757.17
4677.1
2785.42
9125.24
7031.68
6352.43
5099.64
3859.5
2326.45
5599.58
4161.45
4737.63
2236.78
1741.88
1003.31
4988.09
3602.6
1749.91
1448.79
4129.94
1853.22
1631.98
862.604
3269.58
3044.24
2939.02
4343.35
4551.41
4354.38
3753.47
5573.91
3296.18
2166.2
2120.35
2939.6
1008.6
495.048
244.634
563.763
4434.32
1848.39
544.919
5136.76
1326.21
352.58
4477.07
1992.77
611.385
5120.86
1378.16
384.319
4160.34
1964.58
507.196
5023.77
1400.36
327.584
4607.06
2318.66
509.278
4225.51
2026.5
471.76
4211.11
2011
541.187
4240.22
1981.76
416.387
5001.29
1373.36
204.468
5858.48
2928.46
774.362
5346.67
2648.54
719.68
4930.25
2430.13
704.75
4745.43
2020.43
493.631
5416.26
1282.63
312.431
1789.39
644.165
127.707
-200.016
745.165
283.403
77.2614
-39.7253
1897.65
707.365
182.866
-122.477
947.558
394.669
190.15
88.6405
2040.63
788.423
277.675
-2.53347
1625.73
761.727
298.045
67.8259
1242.7
704.54
253.751
-10.9477
1170.41
771.5
452.878
270.199
1695.27
755.267
231.907
-179.636
1453.49
638.966
280.482
-180.1
2001.63
778.349
251.407
-128.911
1812.94
708.644
282.554
-295.751
1363.65
705.35
283.458
-57.5715
1118.86
566.621
304.038
2.63552
1012.02
624.357
373.192
230.316
774.233
480.919
322.836
190.976
2279.62
776.186
125.311
-397.372
2260.37
715.046
180.519
-542.132
2278.79
788.553
146.665
-378.163
2191.15
696.333
188.92
-525.472
2237.55
793.051
225.264
-267.298
2046.78
660.158
233.971
-428.777
1963.92
734.943
312.929
-31.4457
2245.9
740.733
331.252
-500.706
1757.75
658.906
314.463
-117.607
1793.97
504.437
162.642
-366.533
714.843
183.445
44.4398
-76.0711
1853.68
539.412
182.151
-348.935
745.103
198.694
57.3023
-61.6807
1888.04
579.162
226.342
-305.304
759.097
216.223
74.3146
-44.0204
1703.48
547.323
261.342
-239.642
737.53
223.873
102.387
-12.4949
1561.39
545.974
285.364
-137.766
660.808
236.897
140.262
30.4806
1091.94
442.841
217.16
-41.5319
623.812
310.956
189.903
100.802
1259.67
448.616
220.314
-99.861
628.597
269.981
165.581
66.1898
881.775
429.729
239.118
37.9061
561.07
327.986
209.269
134.679
625.186
391.018
267.769
166.711
469.854
327
230.265
174.425
-18.0406
7.60686
7.76186
5.43655
4.13672
-2.71113
5.14874
4.38079
3.00437
2.28631
9.21286
21.9604
15.8612
10.4306
7.80919
26.7698
21.4573
13.7405
8.78295
6.52759
39.0844
39.5035
26.174
16.9585
12.6689
109.404
72.8539
44.6395
28.2891
20.9815
131.53
86.0223
52.6667
33.4507
24.8845
191.472
113.975
67.758
42.6419
31.6709
69.0888
57.8086
37.0152
23.7722
17.6533
74.0431
54.5493
34.1511
21.8792
16.2564
47.5177
46.3282
30.2248
19.5836
14.6144
87.7892
56.6312
34.2384
21.7725
16.126
90.2552
69.0464
43.6704
27.993
20.842
99.445
65.305
39.9925
25.463
18.9255
152.183
91.8258
54.7272
34.4694
25.5906
127.192
75.8192
45.1159
28.4146
21.0618
-33.2317
3.86301
5.75384
4.17524
3.20291
-18.1446
1.21591
2.25642
1.6696
1.29784
-15.3401
12.8749
10.7619
7.25701
5.48918
-11.7548
4.40843
4.00011
2.72468
2.08258
7.23108
23.3632
16.4701
10.8163
8.16208
12.4105
15.015
9.64645
6.1242
4.59796
57.3217
45.7596
28.7021
18.4699
13.8505
38.2779
28.9153
17.7246
11.3108
8.4828
106.354
60.078
35.159
22.1051
16.3698
1637.75
3743.68
1653.37
3705
1805.65
3674.72
2151.08
3822.84
2245.63
3944.75
905.364
1400.19
1483.35
2361.1
483.392
686.754
173.797
230.47
8539.66
2038.49
466.89
104.216
25.8718
2326.53
626.262
166.5
37.8416
8.21891
8446.22
1999.71
457.546
101.271
25.3258
2367.65
698.278
172.023
39.9735
9.92124
8077.72
1898.97
432.828
95.6699
23.9517
2298.13
675.307
165.926
38.3646
9.55629
7413.95
1727.29
392.463
86.6661
21.7023
2234.04
642.778
155.885
35.7232
8.85025
6224.02
1442.47
327.892
72.4999
18.1766
2113.24
591.566
141.891
32.3109
7.98066
2957.62
716.721
165.692
36.8984
9.26441
1031.67
293.408
69.81
15.6199
3.84858
4399
1051.04
241.116
53.4359
13.3961
1518.04
426.174
102.266
23.2731
5.78668
1738.01
424.543
98.6002
22.0641
5.55012
577.385
170.829
40.3963
9.03406
2.24689
600.731
145.867
33.9556
7.62432
1.91901
231.654
62.1189
13.5896
3.81637
0.739517
115.761
498.44
4558.8
-843.275
752.03
805.944
2351.21
3010.28
1896.54
3556.07
2986.27
4605.05
3598.7
4466.11
1870.26
2518.98
1995.3
2366.75
1037.69
1078.95
2307.34
1685.21
533.695
-429.867
-726.054
-870.267
-243.499
12975.7
3176.42
4281.31
2792.67
-124.768
6.13258
3000.55
-1347.12
-733.853
-1025.04
-530.481
7122.61
3772.15
1337.44
1088.98
3679.11
2055.87
668.401
1405.54
-1433.47
-812.711
734.583
590.893
8709.54
4311.55
5355.57
2872.35
4093
4502.97
1568.66
-842.737
965.413
1633.95
1337.75
1153.06
1037.45
794.075
1334.37
1074.64
841.056
592.971
255.33
468.877
389.778
296.297
188.766
65.7811
-383.893
-320.266
-238.938
-146.782
-49.4243
-648.719
-541.758
-404.935
-249.261
-84.0041
-778.672
-651.483
-487.947
-300.904
-101.514
-211.828
-169.251
-118.602
-67.7842
-21.5454
9389.11
8122.2
6918.33
6324.04
5850.02
2809.58
2456.27
2278.07
1890.97
994.572
3271.78
2600.7
2178.71
1698.34
883.198
2142.48
1718.62
1484.18
1139.09
476.368
17.0045
49.6362
151.646
160.422
79.1251
93.3104
164.165
196.166
167.709
70.5154
2541.91
2117.71
1663.29
1154.97
473.279
-814.621
-396.976
-156.439
-28.7864
6.01114
-583.88
-415.323
-251.328
-119.969
-31.2008
-721.706
-447.45
-231.156
-90.9658
-19.1493
-480.774
-399.897
-292.452
-174.274
-56.8006
5271.25
4757.96
4105.64
3781.75
3516.1
2898.99
2283.76
1886.8
1426.83
693.453
1230.03
1103.44
927.695
661.211
260.321
957.679
817.256
654.647
447.643
169.789
3065.31
2469.03
1877.36
1245.45
478.996
1819.06
1541.1
1208.41
800.775
289.875
582.516
487.662
379.708
251.058
91.5243
1238.92
1035.75
793.014
509.348
179.146
-1243.43
-1003.41
-724.773
-433.776
-143.577
-715.21
-583.778
-423.343
-252.313
-82.9376
656.112
564.493
451.927
305.727
112.949
530.331
458.456
367.986
248.326
90.8248
5622.91
4099.82
3520.24
3229.95
2818.79
3290.81
2556.87
1972.38
1403.81
631.216
3938.52
3220.53
2598.06
2012.32
979.012
2293.86
1867.4
1451.83
1016.64
441.939
3481.89
2845.26
2170.35
1423.42
526.466
3408.19
2519.98
2033.75
1517.51
639.89
1369.83
1137.73
870.241
561.883
199.526
-748.107
-617.821
-454.392
-274.682
-91.251
850.55
725.174
579.33
393.746
146.522
-27641.1
-45272.9
-22917.1
-36646.2
-24561.4
-51483.2
-29399.5
-65375.6
-17503.4
-11965.3
-19700.2
-12262
-16142.7
-10364.3
-19997
-10513.5
-22860.3
-17219.1
-33302.1
-23984.9
-19635.4
-15644.8
-27833.7
-20906.2
-15740.3
-16079.3
-12919.8
-12415.2
-15210.5
-14328.2
-38408.9
-10593.8
-14616.5
-5453.67
-46978.6
-13019.8
-13066.5
-4853
-28566.8
-8995.22
-14967.1
-5729.09
-25397.2
-7894.95
-11803
-4747.73
-15038.6
-5448.29
-11202.1
-4925.32
-13071.8
-4730.49
-11611.5
-5632.78
-10442.5
-4144.28
-13389.3
-4726.57
-4696.58
-1648.7
-9999.98
-6642.31
-8632.27
-5260.33
-8818.88
-7089.14
-7571.47
-5397.13
-8781.08
-4995.89
-10279.2
-6410.9
-5912.49
-3526.02
-3178.94
-1951.24
-5099.05
-3513.55
-2646.93
-1882.64
-6009.82
-3265.9
-3316.95
-1661.72
-7741.64
-3930.65
-5006.78
-5826.05
-9823.93
-6601.27
-7050.99
-9834.49
-5248.81
-2353.98
-2996.53
-3364.04
-2832.25
-1139.83
-1349.83
-1274.78
-11600.7
-14113.6
-6538.21
-15965.4
-12062.7
-13468.7
-7509.57
-16324.9
-12192.8
-12266.5
-8950.16
-15537.4
-8336.69
-6725.41
-9127.88
-10124.4
-10101
-9204.04
-10636.8
-12340.1
-13270.3
-18845.6
-6326.06
-6528.4
-7106.51
-8599.4
-13440.2
-13400.6
-9347.81
-17003.7
-13079.9
-12422.6
-9201.41
-16753.5
-13027.5
-10996.8
-8596.73
-15637.3
-12897.4
-7547.3
-6008.39
-7791.25
-6224.93
-8702.57
-7027.1
-9508.76
-8058.18
-14249.9
-12966.2
-7090.68
-6113.74
-7128.66
-6176.09
-7841.84
-7314.85
-9420.87
-9326.36
-13155.6
-13529.6
-6511.61
-5200.38
-4790.65
-6283.4
-8147.72
-11268.2
-6161.49
-10409.1
-4396.25
-5807.24
-6282.03
-5138.63
-838.018
-4138.94
-245.223
-1220.46
-2961.14
-7152.31
-655.156
-1997.37
-414.921
-3701.76
-143.559
-1143.86
-4522.19
-4504.33
-5209.31
-3135.05
-7004.33
-5447.03
-8431.74
-5545.22
-996.136
-2433.51
-2562.53
-1391.75
-1379.98
-1770.49
-2017.52
-1483.47
-5670.86
-1950.67
-7673.67
-2618.38
-5797.2
-2035.81
-7855.77
-2820.41
-5752.02
-2004.58
-8320.55
-3210.17
-3532.47
-991.209
-4401.89
-1690.76
-4969.67
-1930.35
-5980.4
-2266.02
-8784.12
-3500.54
-4499.9
-1363.04
-4044
-2006.29
-4879.97
-2331.29
-6587.07
-2886.03
-9106.1
-3444.64
-6089.8
-5711.39
-4584.16
-4508.1
-10212.6
-7808.38
-8294.72
-6874.42
-4125.44
-3587.49
-1687.19
-1215.08
-3886.67
-3764.81
-1551.95
-1622.8
-2935.21
-4594.36
-3496.51
-4965.31
-3746.12
-2454.53
-3189.56
-491.12
-6735.43
-1754.57
2597.09
440.656
-905.74
-269.354
248.736
687.824
-2442.96
-1731.26
-908.371
-544.84
-2596.79
-1834.54
-1360.93
-631.529
-2899.79
-2203.79
-1802.82
-874.291
-1170.38
-78.8205
656.403
1086.33
-5054.67
-5447.05
-3895.88
-3654.91
-6814.32
-6832.45
-5651.05
-4749.64
-2548.37
-2861.86
-3830.87
-4419.53
-2348.09
-2044.53
-973.623
-896.672
-3622.04
-2844.92
-1824.42
-1434.48
-1314.16
-1484.32
-210.262
-565.404
-1686.49
-1201.45
-2451.6
-1791.53
-2656.29
-2180.87
-3793.04
-2943.27
-596.698
-360.598
-1189.84
-697.998
407.858
535.527
-295.78
162.51
-3565.41
-4495.2
-3041.91
-4519.13
-3525.95
-4486.15
-3112.22
-4510.19
-3716.38
-4152.78
-3285.61
-4283.81
-2832.56
-4721.13
-2426.7
-2138.13
-2341.66
-7092.29
-5022.75
-4618.11
-4801.41
-4951.78
-5691.51
-4780.23
-4050.68
-3783.36
-2992.82
-5345.35
-5369.63
-6990.78
-10810.5
-5064.12
-4830.9
-6708.61
-10303.6
-4657.6
-4461.25
-6191.12
-9499.13
-6913.08
-5302.59
-6226.66
-4728.98
-5436.05
-4318.1
-5551.42
-5098.69
-5739.17
-8778.53
-5600.14
-5280
-4740.86
-4751.9
-4258.58
-4496.99
-4389.64
-5230.2
-4027.46
-7683.61
-3879.39
-2762.81
-2657.68
-961.643
-5595.36
-4901.08
-4337.48
-3195.38
-2050.65
-728.158
-3141.72
-2503.49
-3207.92
-972.272
-444.036
115.647
-3606.9
-2358.23
-637.67
-368.435
-2641.38
-705.218
-286.627
183.034
-1872.21
-1938.4
-2052.39
-3874.99
-2910.95
-3295.01
-2936.73
-5406.43
-2003.66
-1266.85
-1125.59
-2355.08
253.421
394.705
815.028
136.837
-3842.38
-1118.2
-7258.36
-723.36
-3592.36
-1205.99
-7057.93
-750.571
-2756.01
-729.012
-6415.63
-581.732
-2913.51
-652.001
-2674.79
-620.1
-2894.84
-878.596
-3018.82
-560.897
-6033.74
-760.592
-4055.82
-793.11
-3721.81
-595.585
-3764.84
-735.641
-4161.66
-611.87
-6337.6
-761.034
-756.3
-154.396
169.751
424.501
-254.134
-38.6089
65.4427
133.218
-744.97
-120.344
185.019
397.823
-172.318
33.9699
65.8243
75.3253
-761.923
-80.7518
182.884
346.758
-6.59201
238.237
371.842
408.195
544.553
471.906
543.841
559.574
998.809
707.682
543.436
395.385
-329.45
122.14
384.785
645.023
-265.638
174.789
302.092
643.417
-821.978
-65.4363
245.183
528.801
-626.862
59.907
268.31
788.526
135.008
308.927
412.048
546.175
62.5794
275.174
305.674
462.209
583.176
483.644
401.671
316.366
409.094
378.335
308.878
290.478
-1201.93
-265.673
201.309
693.018
-1498.94
-314.349
65.6922
862.924
-1152.74
-229.417
219.077
706.041
-1441.45
-290.299
66.9649
853.63
-1071.77
-174.225
172.424
607.622
-1308.84
-244.599
33.397
773.783
-710.687
-32.2533
154.944
433.487
-1354.02
-207.443
31.3081
960.062
-661.102
23.8211
181.24
607.02
-1393.21
-240.723
1.06122
605.468
-606.621
-92.088
23.9515
153.116
-1301.33
-206.042
19.2025
607.874
-577.198
-80.6616
27.0863
150.619
-1115.21
-138.399
26.33
589.508
-491.346
-52.2769
40.0673
157.153
-914.476
-82.3171
9.1024
527.388
-401.79
-23.3984
39.382
150.056
-667.479
8.59847
56.9249
451.188
-206.215
42.569
52.9412
145.723
-295.588
132.4
211.457
423.127
101.463
203.082
178.725
208.246
-549.175
36.0452
129.578
433.252
-17.0674
130.047
115.227
177.161
12.0259
235.835
258.151
382.381
219.785
261.066
223.08
221.112
318.198
322.801
265.018
273.475
339.941
303.264
234.221
202.999
94.3809
26.9327
10.8086
5.87824
4.19544
39.8341
12.8556
5.51216
3.059
2.18513
109.857
38.896
18.4399
10.7749
7.86776
62.8887
28.007
14.8043
8.98177
6.62887
134.889
54.261
27.7138
16.5588
12.1543
159.249
80.9967
45.3634
27.9676
20.7372
176.753
93.5508
52.9839
32.6956
24.1878
197.138
114.751
67.383
42.1253
31.2535
161.347
71.4579
38.2631
23.2384
17.2063
136.679
62.9731
34.2095
20.8063
15.4025
145.641
58.7163
30.4591
18.2305
13.4091
119.696
58.4193
32.6075
19.9414
14.7988
173.254
82.0275
44.8453
27.3785
20.24
139.482
71.1735
39.9554
24.5711
18.2233
164.292
93.3573
54.4964
34.0073
25.2193
136.828
77.2015
44.9292
27.997
20.7699
102.807
23.9405
8.72363
4.57682
3.23005
47.7772
9.64821
3.30801
1.68396
1.16538
110.426
30.8884
13.2734
7.50415
5.4048
50.5484
12.1839
4.98867
2.77969
1.97651
113.488
37.1889
17.7586
10.382
7.51788
56.6918
20.2332
10.419
6.326
4.61408
125.436
51.746
27.4441
16.4818
12.0391
74.2271
31.0142
16.8022
10.1812
7.43425
105.214
57.4742
33.1608
20.5242
15.2266
-1799.96
-3395.45
-1848.47
-3399.38
-2008.54
-3421.14
-2201.69
-3508.37
-2128.51
-3523.41
-837.339
-1303.07
-1390.49
-2166.26
-417.344
-616.766
-106.526
-167.417
-8678.6
-2054.5
-467.791
-103.941
-25.7006
-2335.66
-630.021
-166.993
-37.7895
-8.16877
-8528.98
-2006.55
-457.059
-100.802
-25.1268
-2381.34
-702.722
-172.403
-39.8932
-9.86281
-8065.83
-1891.35
-430.222
-94.9129
-23.7143
-2304.62
-676.902
-165.75
-38.1956
-9.48428
-7318.85
-1707.38
-388.109
-85.683
-21.4405
-2213.9
-638.841
-154.81
-35.4217
-8.75951
-6107.05
-1419.68
-323.228
-71.5168
-17.9327
-2062.29
-582.346
-140.011
-31.8968
-7.87513
-2916.14
-706.631
-163.39
-36.3953
-9.14012
-994.342
-284.626
-67.918
-15.2222
-3.75401
-4323.55
-1034.27
-237.517
-52.6739
-13.211
-1468.15
-416.245
-100.257
-22.8536
-5.6863
-1714.66
-418.753
-97.2208
-21.7523
-5.471
-548.842
-163.416
-38.6756
-8.65779
-2.15463
-584.946
-142.037
-33.0248
-7.40832
-1.86296
-206.951
-55.5301
-11.9878
-3.45227
-0.648604
149.518
-1093.78
-5434.98
854.274
-6441.4
-2830.54
-6235.75
-2870.17
-11373.9
-6064.85
-12751.9
-6756.94
-129.652
-507.543
-796.313
-938.368
-840.698
-331.356
-212.53
-789.673
-1199.06
-1326.41
-1070.44
-360.34
-109.799
-117.131
-405.983
-408.443
-580.095
-574.051
-558.231
-529.904
-497.074
-479.338
-381.861
-348.039
850.588
2184.48
3541.59
2514.18
2309.32
1109.19
794.42
2267.66
3672.89
4259.51
3556.15
1618.18
-116.884
-98.7654
-74.81
-46.6007
-15.8201
-458.219
-387.9
-294.39
-183.678
-62.4108
-718.877
-608.499
-461.779
-288.11
-97.8976
-846.836
-716.535
-543.558
-339.034
-115.183
-758.598
-641.704
-486.572
-303.332
-103.016
-300.991
-256.017
-194.526
-121.074
-41.0065
-191.485
-161.689
-122.393
-76.2082
-25.8663
-712.48
-602.697
-457.101
-285.067
-96.8414
-1081.53
-914.594
-693.493
-432.452
-146.912
-1195.52
-1010.21
-765.516
-477.197
-162.094
-964.026
-813.903
-616.326
-384.049
-130.441
-325.687
-275.836
-209.202
-130.326
-44.2238
-99.057
-83.7799
-63.5188
-39.5955
-13.4464
-105.739
-89.4973
-67.9056
-42.3566
-14.3893
-366.669
-310.546
-235.791
-147.163
-50.0101
-368.954
-312.539
-237.347
-148.155
-50.3513
-523.872
-443.639
-336.81
-210.196
-71.4274
-518.38
-438.944
-333.213
-207.936
-70.658
-504.114
-426.878
-324.034
-202.179
-68.6912
-478.252
-404.7
-307.008
-191.478
-65.0446
-448.81
-379.861
-288.075
-179.539
-60.948
-432.057
-365.015
-276.418
-172.144
-58.4265
-345.163
-292.1
-221.036
-137.255
-46.4479
-313.457
-264.407
-199.751
-124.069
-42.0305
755.068
629.764
474.406
296.442
101.287
1931.05
1606.23
1209.91
758.276
260.366
3094.51
2557.02
1928.81
1221.34
426.603
2181.82
1798.92
1361.16
866.724
304.013
2036.04
1683.82
1268.32
793.9
258.516
1008.64
851.896
650.943
408.727
130.027
706.252
589.47
443.72
276.705
94.3469
2011.04
1675.82
1261.46
788.003
269.388
3237.12
2686.29
2021.5
1267.75
436.095
3729.1
3081.36
2318.94
1460.71
505.919
3112.98
2572.09
1937.37
1221.58
421.629
1431.84
1195.58
908.555
575.72
198.497
277.797
654.424
940.19
1077.12
971.155
466.658
418.937
991.266
1387.78
1488.8
1192.38
441.975
226.109
215.151
518.902
504.229
684.361
662.344
646.285
599.103
578.221
493.942
519.535
393.5
-695.062
-1948.91
-3134.03
-1969.16
-1645.48
-383.788
-726.385
-2158.16
-3430.4
-3823.24
-2928.7
-870.362
251.256
213.18
162.174
101.379
34.4829
591.55
501.511
381.208
238.152
80.9804
849.607
720.047
547.145
341.737
116.189
973.147
824.563
626.433
391.2
132.997
877.725
743.964
565.322
353.055
120.025
424.77
362.49
276.687
173.031
58.795
378.806
321.29
244.341
152.712
51.939
895.589
758.853
576.535
360.061
122.416
1253.16
1061.22
805.847
503.108
171.026
1343.53
1136.99
862.929
538.597
183.077
1075.46
909.653
690.144
430.704
146.409
400.339
340.019
258.706
161.622
54.9372
204.527
173.55
132.036
82.5418
28.0757
194.611
165.128
125.62
78.5258
26.7085
469.131
397.82
302.456
188.977
64.2602
455.876
386.583
293.911
183.637
62.4441
618.585
524.428
398.614
249.009
84.6636
598.63
507.444
385.655
240.89
81.9
584.248
495.388
376.571
235.238
79.9772
541.322
458.72
348.514
217.637
73.9831
523.102
443.839
337.507
210.833
71.6675
446.204
377.999
287.075
179.203
60.9027
471.392
400.995
305.324
190.692
64.7685
355.807
301.63
229.102
142.947
48.5529
-613.108
-507.937
-380.666
-237.35
-81.1131
-1716.38
-1422.37
-1068.82
-669.629
-230.203
-2720.28
-2233.42
-1678.18
-1062.91
-372.653
-1666.74
-1339.78
-993.926
-627.086
-219.923
-1401.98
-1114.45
-808.609
-489.66
-149.31
-313.873
-226.01
-143.721
-71.6826
-9.04496
-644.467
-536.815
-403.505
-251.51
-85.7723
-1911.99
-1591.8
-1197.64
-748.251
-255.925
-3015.56
-2495.95
-1874.94
-1175.38
-404.597
-3325.53
-2729.64
-2043.85
-1284.74
-445.21
-2527.46
-2057.14
-1530.54
-958.54
-329.94
-731.323
-576.879
-417.518
-256.821
-87.0223
-1419.41
-894.255
-230.016
687.977
988.911
1256.98
593.331
-10786.6
-1675.61
-3114.6
-1490.29
272.404
-3945.99
857.113
2485.47
1184.42
-5847.33
-2649.82
-428.382
-527.566
-3320.22
-1238.9
-234.603
-993.591
2163.02
1362.35
-488.601
-140.55
-7683
-3557.71
-4223.99
-2033.43
-3482.86
-3287.66
-1048.55
1381.2
-354.732
-683.398
-445.919
-387.166
-490.17
-569.619
-548.88
-348.213
-235.846
-177.285
-98.6895
-189.514
-147.864
-108.467
-69.5122
-24.9074
622.385
527.889
401.093
250.312
85.0532
891.793
753.546
570.496
355.057
120.437
1133.56
958.033
725.632
451.869
153.339
538.469
456.78
345.414
213.621
71.9112
-7686.53
-6824.9
-6102.05
-6139.22
-6388.62
-1064.2
-706.067
-827.764
-968.733
-689.331
-2171.83
-1588.24
-1370.14
-1199.57
-742.681
-949.303
-619.324
-570.181
-514.265
-231.677
252.667
207.286
138.045
64.7953
12.4843
-3281.28
-2677.69
-2054.03
-1394.22
-560.808
775.966
649.788
479.751
287.06
92.6649
2160.02
1763.67
1303.26
802.592
271.851
1063.04
891.097
667.948
411.513
138.23
-4055.75
-3743.73
-3372.86
-3431.39
-3612.74
-1805.99
-1283.05
-1084.27
-919.174
-534.272
-328.503
-270.157
-247.513
-216.643
-107.499
-420.961
-334.859
-268.901
-198.831
-84.6741
-2759.95
-2224.19
-1703.95
-1148.75
-452.633
-1037.13
-837.566
-644.548
-434.887
-162.916
-177.148
-130.442
-97.8494
-70.0568
-29.2103
-855.468
-699.741
-529.732
-341.456
-121.627
1930.65
1613.65
1210.36
748.572
252.909
1227.85
1034.75
779.199
481.411
162.157
-406.132
-327.471
-254.312
-174.5
-67.2648
-102.567
-75.7863
-62.4639
-50.6732
-22.5706
-4656.08
-3226.93
-2819.63
-2799.32
-2741.45
-2571.33
-1907.28
-1446.56
-1057.61
-509.422
-2795.69
-2186.51
-1750.6
-1456.08
-765.407
-1493.64
-1145.22
-869.635
-636.546
-311.617
-2913.19
-2345.2
-1778.39
-1174.59
-442.178
-2261.04
-1473.84
-1202.5
-990.914
-463.788
-888.168
-717.698
-542.461
-353.529
-128.312
1246.7
1052.92
795.041
492.606
166.326
-270.773
-206.927
-166.109
-126.919
-54.5585
1.68299
43.9973
100.801
131.386
94.9788
-12.6369
-19541.4
-17248.9
-16453.5
-18753.4
-14316.8
-11331.2
-12903
-9794.21
-16924
-14824.5
-15592.4
-14656.4
-13681.3
-11651
-14378.2
-16074
-14365.1
-13215.2
-14905.7
-12073
-10223.7
-10799.1
-8659.95
-15172.5
-13470.1
-13977.5
-12724.6
-12102.3
-11305.9
-11661.6
-12615.4
-11560.1
-10459
-11443.9
-10030.2
-8610.74
-9021.01
-7751.1
-12695.4
-11519.7
-11816.6
-10768.2
-10277.5
-9505.87
-9770.48
-8802.07
-8280.22
-7379.58
-7826.22
-7428.01
-6660.56
-6703.06
-6137.71
-9134.73
-9222.79
-8617.66
-8685.35
-7682.68
-6942.45
-7706.04
-5625.52
-5376.22
-4750.44
-4957.23
-4974.65
-4504
-4426.4
-4093.22
-6046.77
-6039.06
-5776.92
-5644.25
-5257.82
-4749.17
-5133.62
-2024.55
-1952.35
-1719.12
-1780.29
-1838.01
-1718.42
-1622.81
-1514.16
-2294.07
-2287.36
-2145.65
-2042.98
-1976.31
-1813.73
-1939.84
-7446.36
-7343.62
-11100.4
-11965.8
-7013.87
-6232.74
-9740.82
-7923.02
-5871.78
-4418.46
-5830.28
-4379.92
-5860.6
-5601.42
-4445.77
-7425.56
-7049.75
-9876.83
-10771.9
-6550.67
-5937.19
-8592.75
-7408.21
-5855.9
-3919.91
-5754.93
-4133.9
-5264.76
-5059.18
-4504.59
-6790.92
-6479.11
-8376.13
-8980.7
-6096.61
-5681.66
-7500.25
-6646.72
-4869.27
-4287.18
-4858.28
-4512.07
-4547.77
-4547.54
-4665.58
-5498.83
-5300.78
-6281.82
-6595.37
-5041.16
-4722.7
-5821.44
-5321.01
-4697.97
-3889.2
-4621.63
-4138.26
-4331.87
-4294.43
-4206.84
-3806.53
-3691.99
-4157.33
-4313.82
-3435.59
-3185.63
-3920.82
-3605.33
-3313.86
-3010.07
-3239.63
-3156.3
-3036.47
-2976.62
-3000.8
-1419.31
-1377.93
-1520.26
-1569.96
-1276.12
-1174.14
-1442.22
-1329.86
-1084.66
-1105.19
-1158.86
-1199.79
-1126.15
-1091.6
-1096.7
7190.78
23246.2
5699.9
24339.2
4290.38
25188.2
6800.54
38868.5
8358.58
53451.4
8280.66
38899.1
7965.46
32258
8290.31
28205.8
5023.62
3102.69
13448
7969.66
4931.71
2657.71
14738.7
7314.63
5456.49
3941.68
17259
12131.5
4131.39
2968.55
17338.8
12576.7
9740.64
4110.7
8399.61
3735.73
3851.29
9076.81
33736
9148.49
12074
4091.94
43492.6
11817.8
11321.7
3925.07
24076
7474.29
12349.9
4312.97
20919.2
6653.36
5775.21
2863.82
8508.77
3310.76
6309.74
3413.02
8464.17
3240.33
8025
4570.3
7286.6
3158.56
10808.2
3878.72
3719.87
1297.01
12212.3
8449.45
7566.5
5524.06
13702.7
11270.6
7493.08
6484.54
7150.54
4816.8
10049.8
6702.83
4993.71
3667.04
2544.2
2086.11
4837.43
4178.72
2512.06
2421.87
4780.35
3126.36
2454.96
1572.06
6376.11
3461.48
4767.26
5767.15
8703.84
6191.27
6887.63
9852.07
4227.83
1999.37
2816.05
3307.17
2103.27
871.737
1218.73
1226.82
7598.96
13714.5
5160.73
15318
8978.77
13436.9
6397.11
16061.4
10218.5
12183.8
8251.26
15707
12173.5
14587.7
9092.58
8750.46
9590.88
14566.8
13396
13095.1
13398.5
19370.9
11838.6
9061.31
7804.41
8736.55
13739.8
15884.2
14174.4
18410.8
17637.3
14515.8
13431.6
18181.6
17292.9
12572.4
12238.5
17076.6
16680.8
10620.9
8314.45
9824.55
8525.33
10692.6
9510.19
11455.1
10950.1
15750.3
16070.1
9932.65
8575.74
9426.55
9001.42
9682.81
10199
10877.8
12150.4
14198.3
16347.8
8192.42
6429.38
5634.37
7181.37
11120.2
13566.4
7719.13
12222.9
4757.34
6268.67
7074.93
5827.13
1358.37
4770.45
711.229
1717.45
3947.75
8225.94
1463.82
2856.12
635.835
4033.37
362.139
1415.11
4666.32
4742.2
5302.38
3284.34
7376.85
5890.94
8676.29
5967.02
1079.89
2596.99
2629.03
1489.07
1471.45
1911.29
2084.27
1573.42
11259.4
6825.49
2146.78
12730.2
7297.68
2386.71
10767.9
6739.17
2269.83
12530
7297.41
2381.51
9909.33
6186.22
2030.44
12239.3
7339.36
2449.83
5413.98
2916.91
784.278
6890.72
4529.17
1573.78
8189.67
5645.31
1945.43
9448.65
6104.71
2024.44
12131.2
7547.93
2639.08
6441.56
3606.35
1139.15
6464.71
4644.97
1749.58
7648.55
5646.7
2070.01
9562.34
6702.28
2392.92
12266.9
7635.03
2704.91
304.397
2011.7
2855.18
4107.32
2174.39
2498.07
5466.98
5184.59
585.36
1023.4
623.902
1062.32
492.755
1417.71
875.811
1859.3
3240.01
1584.16
4085.96
2360.33
2180.26
3807.21
3408.5
952.454
6064.12
1493.03
-1881.01
749.309
1802.74
1354.64
1262.59
1174.76
9870.52
4550.85
2684.74
1677.63
10003.9
4736.65
3388.28
2131.66
9881.4
5100.16
4925.55
3483.47
3533.81
2560.1
1765.24
1693.39
12604.4
11213.4
5943.19
6171.59
13501.9
12678.9
6667.09
6726.65
5314.21
5475
10883.3
9112.11
3557.21
3721.4
2002.46
2269.39
4116.77
4091.62
2273.02
2431.41
3123.34
3365.32
1767.12
2162.15
4767.1
3377.32
4769.58
3435.66
7410.69
4454.31
7090.66
4750.19
2886.35
2450.28
3025.06
2226.18
1630.19
1545.99
1929.95
1310.33
11751
8262.08
5981.64
6140.02
11663.5
8446.71
6013.23
6110.13
12097.1
8757.35
6099.08
5934.74
13827
14848.2
12685
8562.13
4958.24
14069.8
13110.9
12284.4
10251.8
6766.12
13194.3
11995.1
9660.76
7521.08
4801.13
7099.19
6385.2
6685.5
7715.08
7299.47
6255.78
6745.99
7612.61
7578.64
6183.78
6802.95
7496.95
10618.7
7488.26
9987.34
6969.47
7950.54
6466.34
7533.72
6511.64
6305.73
7418.57
8818.33
7650.58
7863.72
6887.12
6790.6
6198.84
6088.92
6108.04
4977.71
7061.21
7030.39
4756.17
4676.59
2784.96
9123.82
7030.74
6351.93
5099.16
3859.07
2326.06
5598.23
4160.57
4737.63
2236.65
1742.15
1003.42
4988.04
3602.44
1750.06
1448.84
4129.93
1853.13
1632.29
862.738
3269.26
3043.86
2938.81
4342.96
4550.46
4353.63
3752.97
5573.25
3296.19
2166.1
2120.39
2939.46
1008.92
495.192
244.928
563.884
4438.62
1853.01
547.294
5141.8
1334.06
354.56
4475.76
1992.95
611.405
5118.68
1376.74
384.355
4159.34
1964.26
507.174
5022.99
1399.77
327.459
4606.3
2318.23
509.138
4224.69
2026.08
471.63
4210.23
2010.58
541.07
4239.29
1981.34
416.263
5000.61
1373.02
204.362
5857.63
2927.98
774.196
5345.77
2648.07
719.528
4929.36
2429.68
704.611
4744.62
2020.03
493.5
5415.6
1282.41
312.364
1782.29
640.097
125.3
-200.916
737.79
279.67
75.5048
-40.4661
1897.94
707.433
182.831
-122.664
947.681
394.703
190.078
88.4972
2040.54
788.393
277.637
-2.65109
1625.61
761.703
298.021
67.7199
1242.8
704.602
253.801
-10.9461
1171
771.765
453.012
270.25
1695.29
755.297
231.931
-179.65
1453.53
639.014
280.519
-180.062
2001.47
778.316
251.405
-128.95
1812.82
708.629
282.563
-295.729
1363.87
705.467
283.53
-57.5407
1119.03
566.729
304.107
2.68265
1012.46
624.576
373.312
230.374
774.513
481.082
322.936
191.039
2278.76
775.207
123.793
-398.506
2262.8
715.627
179.942
-543.819
2278.33
788.338
146.625
-378.251
2190.68
696.161
188.993
-525.348
2237.17
792.927
225.256
-267.295
2046.33
660.016
233.988
-428.679
1963.61
734.833
312.89
-31.4955
2245.5
740.622
331.244
-500.637
1757.56
658.852
314.439
-117.657
1799.34
506.414
163.035
-368.885
718.297
184.573
44.6017
-76.9699
1851.18
538.624
181.994
-348.539
744.05
198.395
57.2157
-61.5065
1887.47
578.954
226.349
-305.169
758.801
216.121
74.3056
-43.9384
1703.12
547.198
261.325
-239.576
737.351
223.807
102.373
-12.4668
1561.15
545.9
285.343
-137.736
660.698
236.855
140.244
30.4836
1091.94
442.874
217.188
-41.4985
623.833
310.977
189.914
100.812
1259.57
448.601
220.317
-99.834
628.547
269.964
165.57
66.1881
881.884
429.813
239.175
37.9548
561.168
328.055
209.311
134.709
625.383
391.149
267.853
166.774
470.017
327.112
230.336
174.476
-19.1458
6.90294
7.33229
5.15317
3.91559
-3.44745
4.66474
4.07052
2.79024
2.1146
9.19117
21.9486
15.8498
10.4205
7.79667
26.769
21.4618
13.7445
8.78719
6.52383
39.0335
39.4666
26.1419
16.9304
12.6398
109.341
72.8037
44.5971
28.2534
20.9487
131.518
86.0086
52.6538
33.4398
24.879
191.491
113.982
67.7599
42.6417
31.6716