/*--------------------------------*- C++ -*----------------------------------*\
  =========                 |
  \\      /  F ield         | OpenFOAM: The Open Source CFD Toolbox
   \\    /   O peration     | Website:  https://openfoam.org
    \\  /    A nd           | Version:  11
     \\/     M anipulation  |
\*---------------------------------------------------------------------------*/
FoamFile
{
    format      ascii;
    class       volScalarField;
    location    "2.2";
    object      gradTx;
}
// * * * * * * * * * * * * * * * * * * * * * * * * * * * * * * * * * * * * * //

dimensions      [0 -1 0 1 0 0 0];

internalField   nonuniform List<scalar> 
5712
(
-6602.21
-8438.55
-15688
-22901.6
-23357.4
-40324.8
-17964.6
-45771.5
-14637.9
-32163.3
-21888
-33290.9
-19647.6
-25751.6
-8637.85
-9873.5
-14708.3
-16845.1
-19026.5
-18867.4
-14981.8
-18519.5
-22087.8
-19823.4
-5363
-4023.72
-6672.15
-4480.87
-12425.6
-9921.55
-21230.5
-15359.7
-16455.6
-17094.5
-18250.5
-17379.6
-6380.61
-5009.02
-38978.5
-52183.1
-25175.7
-30911.5
-52453.5
-68056.9
-27131.6
-31060.4
-28880.3
-40800.8
-25192.4
-33400.7
-14732.4
-23759.1
-2819.95
-950.065
-2971.24
-1070.49
-8515.94
-3435.5
-11691.5
-4298.44
-8307.67
-3188.82
-8853.95
-2837.99
-15098.4
-4802.34
-19484.2
-6571.19
-23893.3
-11851.7
-21873.8
-12966
-22427.8
-14503.3
-19724.1
-14843.2
-17179.8
-10202
-17173.2
-8740.67
-22566.7
-14438.8
-22615.6
-14575.6
-20830.9
-15718.9
-21082.5
-15792.8
-18558.3
-11790.1
-19222.6
-12082.8
-17541.3
-7587.49
-8094.3
-9846.23
-17613.8
-8291.28
-7054.34
-9966.96
-18578.5
-7555.49
-9180.98
-9926.25
-19500.8
-7739.63
-9989.48
-10374.4
-3654.31
-3989.34
-1226.23
-2391.7
-10708.4
-11316.7
-4128.81
-7305.52
-13713.4
-15248.7
-6589.88
-11198.8
-12279.6
-1105.96
-13538.9
-16663.4
-9028.27
-766.975
-7467.86
-12149.4
-19561.8
-13520.9
-9839.46
-11934.6
-10413.5
-8964.61
-14052.5
-3517.48
-2904.88
-2008.01
-1992.55
-9923.44
-8386.58
-5962.6
-5673.52
-12400.7
-10526
-7789.15
-6991.07
-5863.51
-7454.54
-12091.3
-12520.8
-14009.2
-12749.3
-15789.2
-13759.5
-10641.6
-8954.1
-9045.64
-9552.8
-11933.9
-9463.41
-10865.8
-7951.12
-9392.94
-6510.74
-10916.7
-7170.33
-10230.6
-4830.83
-8775.14
-9535.55
-12550.7
-16399.9
-13804.1
-20113
-6976.67
-7773.39
-9057.52
-2957.82
-7816.54
-15084.8
-7413.89
-16164.8
-13665.1
-24822.8
-13902.8
-26334.8
-5900.98
-12946.9
-5359.28
-13789.4
-8146.57
-6185.43
-11317.2
-4505.81
-8401.14
-1732.92
-9876.81
-817.458
-7821.54
-9247.24
-11853.7
-5490.18
-6465.59
-10895.7
-10485.5
-7196.4
-2319.01
-2049.82
-1841.79
-1664.06
-1530.91
-1374.21
-6875.62
-5671.35
-4930.29
-4404.96
-3564.84
-3106.3
-8452.4
-7321.45
-6776.94
-5307.13
-4355.34
-4126.51
-6575.59
-5845.69
-5712.14
-10944.2
-8372.26
-7072.73
-10282.5
-7649.48
-6229.91
-10800.6
-8573.16
-7476.16
-6671
-4426.9
-3467.8
-15749.1
-13691.4
-11897.2
-10096.4
-8446.52
-7047.78
-8938.97
-6990.8
-5612.84
-7482.85
-5439.75
-4206.52
-7657.81
-4286.74
-2435.86
-10334.1
-14008.5
-8166.8
-10562.8
-11105.7
-16326.5
-9915.65
-14449.5
-41.426
-730.718
504.658
-101.046
-2958.81
-3351.98
-1222.41
-655.949
-684.306
-2397.05
-9374.06
-13697
-6646.44
-3639.46
-9853.8
-9780.64
-15168.9
-16707.4
608.6
4116.74
-7542.17
-7112.68
-7149.49
-5516.33
-1024.84
-545.911
-661.488
-264.339
-1984.91
-206.339
358.447
860.987
-9219.55
-2404.14
-6224.55
-1627.33
-9000.86
-2750.22
-10898.6
-3520.71
-8786.54
-11899
-8131.66
-11612.1
-14101.8
-14951.2
-13465.9
-14166.8
-5641.17
-9436.52
-6508.26
-9370.52
-8631.23
-11191.3
-9524.4
-11312.7
-14032.2
-13920
-14695.9
-13984.1
-5696.5
-9137.79
-6201.53
-9313.44
101.146
-1397.76
-7484.36
-4763.71
671.033
-981.394
-6934.1
-4213.76
-356.331
-1653.3
-7657.48
-5190.17
-813.892
-1927.44
-7705.89
-5381.13
692.53
799.627
-170.757
-21.8414
2925.8
2967.83
208.455
367.41
592.266
1993.97
-1717.79
-1067.75
10264.3
9543.81
5582.84
4273.24
413.924
10469.9
10810.6
4335.4
6405.75
805.976
-10203.5
-8030.87
-7182.87
-6792.75
-4197.91
819.797
765.922
29.5616
-78.346
2592.19
2568.9
87.1449
-168.853
2607.78
3187.79
-734.706
-1078.69
5137.41
2350.09
8194.77
5167.03
3669.4
2804.5
4139.03
3618.07
-500.956
-1474.18
-3755.27
-2371.82
-1030.26
1038.8
-1022.15
764.122
-1771.2
-420.895
-2216.52
-2544.4
-5238.39
-4801.02
-9962.62
-6019.8
-8106.67
-8181.61
-12310.3
-9985.43
-7911.56
-4681.6
-3961.62
-3948.2
-11743.6
-5196.13
-12919.6
-5827.34
-13730.4
-10190.8
-14654.2
-10921.3
-9591.24
-3819.76
-10745.2
-4426.07
-6328.74
-5067.69
-4986.8
-7401.58
-4117.69
-4662.76
-4272.33
-6864.7
-7294.94
-5020.05
-5630.77
-8494.43
-8847.29
-5457.18
-7018.55
-8774.99
790.008
850.819
959.811
19.0416
297.305
335.58
2882.41
3080.82
3087.13
211.896
852.577
860.157
3639.25
4089.83
4209.53
-626.305
826.42
1126.62
1273.47
1092
790.411
3835.62
3934.06
3677.5
3144.41
3572.73
3522.35
3891.05
4212.68
4122.77
-1407.03
364.487
502.097
-3444.94
-1955.79
-1027.36
1046.18
2199.21
2815.57
998.939
2483.34
3131.88
431.842
2048.45
2515.94
-2407.57
518.693
868.364
27.9911
40.8568
53.4494
81.1104
271.577
155.675
131.037
128.421
8.78462
80.3501
188.02
293.243
442.344
287.338
325.26
353
-229.146
32.4532
268.702
522.647
164.377
236.028
306.773
351.768
39.3465
142.505
148.602
146.892
-215.773
-5.06323
124.399
212.121
-961.135
-195.768
103.585
318.623
-1506.48
-349.474
6.61161
547.104
-669.024
-80.4019
187.577
468.278
-1238.48
-265.255
-12.4642
478.399
-1024.11
-235.172
130.5
402.326
-1689.67
-416.465
4.47069
643.481
-1144.5
-313.471
119.449
479.144
-1821.41
-477.653
-17.4851
672.964
8.1368
23.9633
46.5737
101.897
37.8616
32.7844
28.1142
93.2803
70.7734
81.9692
144.133
275.474
166.741
111.091
87.2665
252.428
-412.09
-48.5232
158.365
470.402
-188.066
31.0148
115.854
445.826
-83.833
123.396
234.407
470.431
-22.3491
99.0791
99.1117
449.782
-1066.38
-202.275
27.858
627.232
86.0407
46.0734
33.9808
70.8051
165.049
67.339
35.7826
33.0323
175.385
109.54
74.9271
182.242
420.708
179.009
90.1884
84.9241
99.8365
121.945
104.333
299.999
530.09
251.66
136.178
133.992
-101.586
111.13
131.744
417.316
411.908
271.975
162.156
170.526
-559.616
15.1856
68.919
400.321
112.751
234.632
150.014
174.83
-1239.37
-122.759
55.8865
462.868
-400.595
59.5509
95.9736
163.077
-959.622
-34.809
67.0668
431.234
-241.11
137.808
127.69
176.578
-1497.48
-231.526
19.9537
502.475
-544.958
-17.8945
62.8481
152.581
-1691.83
-340.057
-30.5626
495.966
-678.816
-102.428
18.9468
131.879
35.8972
15.9344
8.25362
4.87234
3.53282
47.2963
24.4665
13.5692
8.23444
6.01838
85.7411
37.1047
19.1713
11.379
8.31642
107.179
54.868
30.4807
18.6007
13.6473
113.742
46.4912
23.721
14.0675
10.3112
144.277
72.8387
40.5743
24.9083
18.3465
75.7275
37.3352
20.711
12.7405
9.39183
53.7114
21.8827
11.1043
6.63515
4.84253
114.371
47.6159
24.7763
14.882
10.8781
54.5803
19.4863
9.54602
5.60867
4.06768
120.478
55.3677
30.1484
18.3911
13.5276
51.5306
19.3842
9.79018
5.79974
4.20219
88.0185
31.1125
14.9937
8.78246
6.37906
51.7231
17.4113
8.3629
4.91215
3.57143
76.4581
19.9932
7.75006
4.13925
2.89609
42.2346
9.45018
3.33854
1.71018
1.174
29.9318
12.0234
5.99545
3.46407
2.4886
21.605
9.52848
4.96875
2.9113
2.09886
73.1087
30.188
15.4434
9.05606
6.56735
55.7911
25.1068
13.3244
7.88328
5.70702
102.595
37.239
18.2629
10.5537
7.63037
75.7721
34.6161
18.5767
11.0318
8.04286
92.3989
42.5622
23.2937
14.1423
10.4109
51.5611
26.3625
14.6365
8.80503
6.48452
47.9427
23.4089
13.1136
8.05172
5.93103
-332.219
-455.518
-744.184
-1113.85
-767.782
-1391.37
-240.528
-1124.34
408.102
-188.465
-719.263
-1211.68
211.991
133.091
-1134.34
-1798.52
-1438.26
-2054.87
-616.483
-143.105
-32.2216
-7.11368
-1.7833
-208.523
-93.0912
-13.1974
-3.48385
-1.50861
-1893.65
-437.578
-98.8628
-21.7182
-5.45154
-498.459
-133.696
-32.3649
-6.7976
-1.82421
-3182.72
-736.976
-166.938
-36.7904
-9.21414
-789.893
-226.084
-54.6169
-12.6232
-3.16291
-4273.07
-992.348
-225.682
-49.8824
-12.5067
-916.545
-283.739
-70.7724
-16.5476
-4.13849
-5341.89
-1252.81
-286.867
-63.7188
-16.0409
-1008.01
-343.623
-88.2846
-20.9201
-5.29407
-6338.67
-1532.44
-355.736
-79.6764
-20.1453
-1553.79
-476.126
-117.593
-26.9986
-6.75752
-5897.86
-1420.73
-328.36
-73.2427
-18.4613
-1209.89
-403.956
-102.791
-24.0666
-6.03108
-6541.21
-1583.91
-368.389
-82.6393
-20.9258
-1758.83
-521.704
-126.971
-28.749
-7.1774
-6818.98
-1637.33
-381.352
-85.5087
-21.6397
-1823.71
-542.775
-133.292
-28.0417
-7.40784
-508.045
-6912.17
-6307.65
-2257.15
1639.42
2794.44
7789.04
11384.2
1758.64
8362.41
-1614.77
2596.15
2499.4
4930.36
9302.82
13163.9
14071.7
17659.6
5745.3
7440.01
-19821.4
-14341.1
-4786.68
-3756.97
-2701.7
-3862.02
-3591.61
-12213.9
-11720.5
-9993.83
-10848.1
-8976.74
-6429.11
-8364.77
-5563.37
-4711.78
-5734.24
-3937.44
-19778.3
-10316.8
-3667.72
-6248.96
-8457.78
-5913.47
-6465.57
-4814.66
-2936.18
-4153.74
-4404.29
-4759.78
-19499.6
-12808.4
-12182.2
-8811.02
-8766.05
-9198.21
-3976.76
-5249.7
-6641.4
-14176.4
-12328.9
-10435.7
-9738.32
-8459.29
-9330.57
-6410.82
-5008.71
-3878.88
-2013.73
-4225.48
-3503.3
-2624.83
-1635.28
-559.35
-3354.75
-2807.86
-2112.19
-1312.13
-445.596
-2399
-1993.69
-1488.13
-918.244
-310.534
-3452.79
-2891.01
-2172.35
-1346.31
-456.098
-3187.03
-2649.28
-1981
-1225.97
-415.741
-7869.33
-6053.84
-4784.14
-4486.66
-4897.55
-6417.91
-4739.72
-3403.11
-2851.35
-2006.72
-6241.09
-3750.29
-2611.15
-1834.87
-889.167
-5577.3
-3767.14
-2518.7
-1848.44
-1098.55
-4193.05
-2621.27
-1638.18
-1143.58
-563.874
-5088.22
-3800.16
-2625.92
-1570.93
-541.148
-5691.31
-3652.96
-2391.06
-1436.11
-539.47
-3651.02
-2179.23
-1305.69
-707.895
-239.485
-3881.86
-2995.4
-2108.89
-1261.85
-425.899
-4576.36
-3415.15
-2328.3
-1356.76
-450.814
-3278.51
-2550.42
-1800.46
-1072.85
-358.618
-13113.7
-10037.5
-8167.12
-7339.75
-7066.06
-7602.69
-5516.7
-4050.94
-2764.98
-1252.74
-3051.9
-2387.84
-1710.82
-1044.1
-360.124
-5292.34
-4228.47
-3097.81
-1930.12
-677.944
-6933.24
-5447.15
-4015.41
-2590.31
-983.63
-5032.38
-4054.84
-3006.6
-1899.04
-674.724
-5596.19
-4570.51
-3408
-2141.64
-748.083
-4188.5
-3423.12
-2538.16
-1575.65
-540.749
-2531.02
-2038.57
-1481.61
-899.35
-302.576
-3655.91
-3011.79
-2233.74
-1374.82
-465.277
-3745.79
-2983.85
-2157.82
-1313.55
-446.078
-4120.91
-3347.11
-2464.45
-1519.95
-519.401
-13601.3
-11320.6
-9519.66
-8563.47
-7543.87
-8905.79
-6392.79
-4948.4
-3696.5
-1899.72
-9002.58
-7150.47
-5472.4
-4073.97
-1995
-6935.14
-5269.8
-3978.39
-2719.82
-1114.5
-7314.88
-5853.98
-4379.5
-2848.58
-1073.57
-7182.25
-5414.39
-4061.01
-2763.98
-1119.01
-3413.12
-2759.81
-2038.31
-1272.31
-443.157
-4624.99
-3819.94
-2846.29
-1762.12
-599.277
-5714.64
-4635.73
-3436.04
-2150.36
-748.973
-5556.36
-11309.3
-11793.8
-32280.1
-11631
-43226
-6341.85
-15380.2
-11643.6
-8990.97
-19327.7
-16116.3
-11620.1
-10936.5
-21693.1
-17177.4
-4088.86
-3036.84
-7907.43
-5431.88
-9164.29
-6904.74
-24570.1
-18149
-15107.2
-11470.7
-15525.2
-9231.69
-1190.39
-3733.16
-40230.7
-52690.7
-24328.5
-30763
-53194.8
-68355.8
-26201.2
-30835.4
-29968.7
-41359.4
-24421.1
-33340.2
-16193.7
-24449.6
-1951.26
-514.412
-3425.18
-1168.38
-6637.39
-2961.71
-13459.1
-4858.77
-2921.78
-1656.58
-7308.23
-2296.82
-15119
-4748.76
-19659.5
-6619.79
-16444.1
-8513.27
-18941.1
-11256.6
-14992.2
-10721
-16818.6
-13031.5
-15117.3
-8844.05
-11965.9
-6175.44
-21431.4
-13667.4
-22331.3
-14364.3
-19674.2
-14931.4
-20773.3
-15578.3
-17796.7
-11161
-19041.9
-11908.9
-16545.1
-7301.41
-7201.33
-9497.29
-14806.9
-7462.61
-5393.77
-9330.68
-18308.2
-7482.12
-8764.06
-9754.44
-19467.4
-7733.06
-9871.65
-10324.2
-1122.71
-1009.38
-271.677
-1196.72
-4560.55
-4714.68
-2851.64
-5654.48
-2552.89
-3182.45
-4428.28
-8368.57
-12070.4
-9676.39
-9338.46
-11652.1
-7677.66
-7621.67
-8152.79
-6866.95
-13489.2
-11710.9
-11504.3
-9635.53
-6693.45
-5743.16
-12609.4
-1088.86
-816.946
-608.061
-681.756
-4239.27
-3367.26
-3588.94
-3162.56
-613.257
514.182
-4241.01
-3330.56
-10151.1
-10779.1
-9488.23
-8683.15
-7062.31
-5130.14
-9243.35
-7362.11
-8272.35
-6480.16
-11552.8
-11755.8
-9881.65
-7727.58
-7313.87
-4966.23
-6447.73
-4082.09
-9630.52
-5859.63
-9289.92
-5070.67
-8284.71
-9438.68
-13046.2
-17352.9
-13760.3
-20091.6
-6348.23
-7540.77
-7702.99
-2877.96
-7635.8
-14946.1
-7370.54
-16111.2
-13596.9
-24924.9
-13877.2
-26316.7
-5662.18
-12775.8
-5301.88
-13736.3
-7681.55
-6043.03
-11124.9
-4504.48
-7394.63
-1794.38
-9572.27
-1223.97
-7635.13
-9140.37
-11765.9
-5473.66
-6416.09
-10860.3
-10461.4
-7183.95
-804.861
-747.999
-547.031
-631.908
-2568
-1877.87
-2325.79
-2116.16
1076.8
588.742
-2725.25
-3025.77
-10667.1
-10120.2
-7691.26
-6640.3
-4079.25
-3437.56
-5774.71
-4765.04
-5448.61
-3978.49
-18282.6
-16008.5
-7973.51
-6788.68
-6052.48
-4608.76
-5003.72
-3217.03
-5336.01
-2321.31
-5599.63
-9212.44
-4907.72
-9329.8
-8316.98
-10393.1
-9336.16
-12718.4
-992.59
-722.625
-774.004
-659.828
-3637.44
-2602.28
-2980.86
-1680.87
-1401.77
-1675.95
-8337.57
-8956.27
-4692.85
-4242.06
-9333.26
-9662.07
-14338.8
-16475.6
359.096
3921.09
-7361.76
-7135.32
-7056.63
-5566.78
-1074.43
-973.179
-1168.11
-963.797
-1743.73
-1188.58
-615.118
-522.407
-8142.24
-3790.54
-6920.52
-3179.68
-9297.62
-3681.73
-11027.3
-3902.22
-5396.39
-10257.9
-6993.37
-10739.9
-8665.95
-11654.8
-11373.8
-12635.2
-5245.93
-9246.61
-4750.81
-9208.72
-8170.75
-10833.9
-9389.16
-11218.5
-13154.1
-13279.8
-14445.6
-13810.9
-5612.89
-9088.03
-6190.74
-9309.64
-514.687
-2240.15
-7917.14
-5431.89
-494.589
-2319.42
-7844.52
-5201.97
-817.221
-2246.94
-7899.31
-5600.11
-1004.26
-2166.79
-7778.52
-5522.48
-1076.22
-1181.11
-1011.13
-1095.09
-2097.22
-2145.82
-1442.17
-1565.67
-8398.19
-7727.55
-3934.67
-3968.72
-3743.82
-5214.42
-4052.41
-299.436
-1841.52
-1308.8
-1402.02
-3612.14
2658.68
-887.999
-13777.4
-11728
-10632.5
-9281.42
-5837.29
-1187.91
-1071.57
-1236.37
-1542.64
-2126.06
-1669.22
-2013.33
-2679.05
-8077.65
-7971.26
-4399.12
-5699.94
-5039.22
-6705.43
-3169.51
-5097.14
-4854.19
-5295
-1164.57
-1534.22
-2946.63
-4401.42
-9664.22
-7941.9
-7635
-5611.01
-6688.81
-4779.66
-5964
-4352.13
-4416.81
-4865.21
-8357.17
-8257.34
-11256.2
-7269.19
-10419.6
-11187.3
-13049.8
-10986.2
-9474.59
-5894.46
-6977.14
-6970.46
-12253.8
-5975
-13052
-6016.88
-13934.9
-10841
-14694.8
-11061.1
-10313.1
-4581.84
-10949
-4629.26
-7818.07
-6170.04
-6309.51
-8644.42
-6685.02
-7104.25
-6183.54
-8887.82
-8074.91
-5741.62
-6383.29
-9287.66
-9091.32
-5684.28
-7262.28
-9002.08
-864.491
-744.784
-1114.51
-817.786
-1423.71
-1692.56
-1639.7
-1199.2
-7791.74
-6822.16
-3813.38
-1698.38
-7875.24
-7474.24
-6137.05
-5519.9
-5132.2
-4401.17
-1861.39
-1915.35
-4192.44
-1891.73
-8640.21
-7406.8
-4894.77
-3882.2
-3810.24
-2402.58
-2822.12
-1237.88
-4368.57
-106.651
-236.721
-108.93
-37.5432
23.8081
-222.558
-139.53
-49.9355
13.3002
-639.71
-283.849
-11.565
179.015
-577.908
-334.926
-46.7332
116.361
-1047.03
-420.369
30.2192
410.05
-1032.82
-507.787
-173.443
17.3294
-710.337
-342.376
-168.732
-54.2755
-544.831
-225.051
-20.5707
117.299
-1565
-550.57
-130.055
146.716
-1861.79
-530.865
-95.2597
525.285
-1502.47
-529.319
-86.6733
275.728
-1690.91
-477.838
-123.685
477.978
-1462.66
-507.06
-40.1061
301.288
-1929.19
-546.845
-76.7473
611.054
-1324.51
-429.012
45.688
434.187
-1909.04
-527.458
-48.9767
660.617
-219.724
-89.3487
-13.5997
73.9122
-189.173
-68.1138
-28.1622
70.5469
-566.854
-233.613
-21.0956
191.557
-475.863
-179.577
-74.1909
182.509
-1119.47
-390.35
-9.23186
413.396
-1017.7
-340.144
-85.1212
377.843
-1244.3
-462.126
-87.1554
306.013
-940.111
-322.492
-114.835
421.304
-1704.05
-477.446
-108.213
664.118
-136.569
-51.0607
-15.6323
46.0279
-62.8382
-35.7638
-16.3536
0.0315426
-411.455
-147.629
-64.2953
109.752
-207.739
-106.977
-57.8901
-8.267
-730.64
-245.607
-97.7543
198.094
-422.947
-187.547
-90.7906
-7.12188
-1111.56
-353.852
-123.876
299.987
-740.655
-276.482
-120.744
-1.86661
-1464.57
-424.923
-193.609
255.616
-999.344
-334.198
-159.531
-22.4476
-1958.66
-550.747
-206.713
318.685
-990.696
-310.368
-130.827
13.2755
-1887.6
-540.587
-236.18
264.851
-1095.8
-345.901
-153.505
-10.0764
-1933.42
-504.557
-150.864
411.297
-887.759
-249.97
-81.2768
61.5567
-1834.9
-432.321
-88.9603
464.71
-786.269
-177.995
-28.5239
102.147
-6.31727
-10.6616
-7.70595
-5.16344
-3.91704
-28.1527
-20.8556
-13.2992
-8.61163
-6.47956
-12.2799
-24.3111
-17.6045
-11.7329
-8.83765
-60.9269
-46.1717
-29.457
-18.9949
-14.2515
-6.5565
-29.2317
-21.5915
-14.4047
-10.822
-79.6091
-60.7327
-38.5024
-24.6734
-18.4472
-38.6639
-30.4443
-19.3788
-12.3965
-9.26417
-4.96216
-12.9541
-9.53703
-6.32772
-4.79666
-17.8057
-31.7983
-22.3197
-14.659
-11.0463
5.15732
-10.6541
-8.37513
-5.63717
-4.27923
-47.8841
-43.9256
-28.3695
-18.2482
-13.6506
-1.10942
-12.2965
-8.9722
-5.96
-4.52244
11.8273
-15.1656
-12.5427
-8.51055
-6.46419
8.67948
-8.53646
-7.02616
-4.74398
-3.60084
41.5941
-1.27297
-4.95833
-3.88021
-3.09995
27.8066
0.587162
-1.96461
-1.64138
-1.33927
-0.137623
-7.48289
-5.73771
-3.9132
-2.98669
-6.28758
-7.38712
-5.03084
-3.34673
-2.54029
-8.9963
-21.1504
-15.1292
-10.1161
-7.65277
-22.0451
-21.0252
-13.7816
-9.05425
-6.84445
9.06693
-22.8226
-17.6501
-11.9915
-9.09714
-36.5955
-30.7432
-19.6703
-12.8507
-9.65364
-44.1107
-36.5863
-23.0717
-14.8345
-11.0703
-41.0622
-25.8339
-15.7208
-10.1281
-7.54144
-31.013
-21.209
-12.9103
-8.19967
-6.11583
-60.2172
-202.504
-106.682
-516.361
-47.5772
-711.933
243.692
-640.504
513.483
-91.2347
-765.5
-1258.65
116.469
-55.81
-1157.91
-1812.71
-1444.9
-2057.72
-591.548
-139.793
-31.6503
-7.00234
-1.75665
-157.632
-86.1537
-12.035
-3.30642
-1.47773
-1828.14
-428.393
-97.2354
-21.3964
-5.37382
-378.739
-115.378
-29.55
-6.36847
-1.75049
-3082.46
-721.837
-164.184
-36.2443
-9.08328
-655.586
-204.731
-51.2114
-12.0785
-3.06456
-4157.24
-972.964
-221.995
-49.142
-12.3303
-824.826
-267.394
-67.9228
-16.0521
-4.04338
-5239.81
-1232.7
-282.725
-62.8571
-15.8335
-985.855
-336.018
-86.5406
-20.5621
-5.21752
-6294.02
-1520.44
-352.848
-79.0257
-19.9821
-1560.84
-476.081
-117.346
-26.9153
-6.73351
-5832.27
-1404.04
-324.549
-72.4142
-18.2589
-1223.43
-402.409
-102.034
-23.8679
-5.98337
-6514.98
-1576.74
-366.613
-82.2311
-20.8217
-1760.43
-521.543
-126.848
-28.7118
-7.1668
-6810.25
-1634.95
-380.752
-85.369
-21.6039
-1823.7
-542.651
-133.245
-28.0329
-7.40495
-524.125
-6834.68
-6047.7
-2203.89
-1567.93
-933.266
-3687.94
-2688.38
-6392.16
-5978.07
-3042.36
-2294.6
-394.342
-603.471
-1034.42
-1676.4
-2505.07
-3439.9
-284.465
-610.469
-1268.1
-2203.52
-3309.37
-4426.23
-300.012
-138.278
-514.741
-352.369
-946.896
-786.71
-1577.49
-1466.19
-2261.22
-2177.27
-2950.78
-2669.09
-4243.69
-4771.29
-5165.68
-7656.22
-8547.02
-9401.9
-5346.87
-5855.34
-5803.53
-5276.77
-4504.39
-3929.61
-356.262
-301.827
-229.253
-143.131
-48.6511
-544.842
-461.247
-350.084
-218.449
-74.2311
-933.221
-789.359
-598.645
-373.343
-126.833
-1510.77
-1276.37
-966.989
-602.661
-204.681
-2253.77
-1900.74
-1437.97
-895.495
-304.065
-3086.13
-2595.49
-1959.67
-1219.44
-414.099
-256.864
-217.516
-165.14
-103.064
-35.0227
-550.876
-466.097
-353.583
-220.549
-74.9293
-1143.49
-966.729
-732.85
-456.92
-155.209
-1984.8
-1676.01
-1269.31
-790.964
-268.632
-2975.76
-2508.44
-1897.26
-1181.55
-401.252
-3969.65
-3337.87
-2520.41
-1568.92
-532.956
-271.151
-229.785
-174.579
-109.021
-37.0664
-124.981
-105.919
-80.4735
-50.2542
-17.0865
-464.921
-393.735
-298.945
-186.588
-63.4173
-318.31
-269.619
-204.742
-127.803
-43.4392
-854.66
-723.252
-548.736
-342.312
-116.31
-710.216
-601.153
-456.185
-284.607
-96.7062
-1422.32
-1202.22
-911.137
-567.948
-192.901
-1322.11
-1117.6
-847.015
-527.942
-179.299
-2035.37
-1717.24
-1299.37
-809.103
-274.681
-1959.81
-1653.3
-1250.61
-778.427
-264.185
-2647.8
-2226.66
-1680.38
-1044.86
-354.584
-2394.68
-2012.76
-1517.47
-942.418
-319.524
-3789.12
-3172.95
-2389.71
-1486.96
-505.652
-4223.86
-3512.42
-2637.94
-1645.24
-562.545
-4500.22
-3699.56
-2772.09
-1744.28
-606.829
-6462.46
-5217.18
-3920.23
-2536.9
-932.878
-6818.08
-5358.38
-4065.64
-2775
-1148.21
-7179.51
-5539.43
-4236.55
-3007.76
-1349.29
-4776.48
-4002.24
-3016.36
-1877.92
-638.724
-5199.4
-4335.34
-3261.12
-2033.59
-694.072
-5104.44
-4226.44
-3174.22
-1988.81
-684.636
-4564.09
-3738.6
-2807.31
-1780.48
-626.569
-3768.42
-3029.32
-2281.72
-1489.11
-554.19
-3168.61
-2496.79
-1888.66
-1273.06
-503.625
-415.118
-667.295
-1145.58
-1841.04
-2732.01
-3718.27
-313.525
-699.707
-1421.57
-2422.21
-3581.29
-4714.93
-319.92
-155.28
-576.236
-406.089
-1055.68
-885.5
-1743.15
-1622.91
-2503.5
-2450
-3265.45
-3081.92
-4534.92
-5043.54
-5416.71
-7810.76
-8616.08
-9423.35
-5594.77
-6006.27
-5835.07
-5209.59
-4405.55
-3884.18
-375.141
-317.938
-241.583
-150.876
-51.2929
-602.885
-510.819
-388.058
-242.323
-82.3781
-1034.45
-875.978
-665.127
-415.207
-141.132
-1661.09
-1405.4
-1066.36
-665.412
-226.147
-2461.78
-2080.14
-1576.81
-983.52
-334.247
-3343.06
-2818.91
-2134.05
-1330.77
-452.424
-283.275
-240.046
-182.376
-113.889
-38.7153
-632.006
-535.366
-406.628
-253.889
-86.3046
-1283.24
-1086.29
-824.608
-514.697
-174.941
-2184.45
-1847.39
-1401.3
-874.31
-297.144
-3225.04
-2723.48
-2063.73
-1287.12
-437.457
-4236.1
-3569.58
-2701.29
-1684.42
-572.725
-289.219
-245.189
-186.356
-116.413
-39.5867
-140.408
-119.06
-90.5117
-56.5513
-19.2332
-520.806
-441.424
-335.443
-209.518
-71.2395
-367.097
-311.219
-236.553
-147.775
-50.2494
-953.668
-807.905
-613.66
-383.169
-130.26
-800.109
-677.991
-515.098
-321.673
-109.36
-1573.56
-1332.02
-1011.08
-631.049
-214.484
-1465.35
-1240.72
-941.954
-587.954
-199.839
-2257.39
-1908.65
-1447.44
-902.945
-306.851
-2209.88
-1869.05
-1417.65
-884.359
-300.513
-2938.22
-2479.21
-1877.46
-1170.64
-397.864
-2774.95
-2342.67
-1774.31
-1106.03
-375.763
-4061.27
-3412.99
-2579.74
-1609.71
-548.213
-4483.97
-3747.39
-2828.33
-1770.62
-606.583
-4748.9
-3932.22
-2966.84
-1876.19
-654.218
-6640.1
-5403.09
-4091.42
-2663.19
-982.26
-6920.59
-5477.24
-4184.66
-2871.49
-1191.38
-7217.36
-5584.96
-4283.74
-3047.79
-1368.21
-5008.24
-4206.79
-3178.45
-1982.73
-675.084
-5345.31
-4468.88
-3370.73
-2106.51
-719.833
-5143.47
-4270.18
-3216.29
-2020.18
-696.536
-4514.2
-3706.68
-2791.84
-1776.38
-626.838
-3688.31
-2969.21
-2242.94
-1470.05
-549.792
-3131.34
-2468.1
-1869.54
-1263.34
-501.316
-19760.5
-14397.3
-5167.66
-4168.3
-3175.25
-4456.41
-4085.43
-12989.4
-14622.7
-11570.5
-13353.7
-7945.71
-11316.6
-6083.08
-6348.14
-4641.58
-20463.3
-11328.7
-4380.39
-7166.92
-9324.13
-6427.16
-7131.95
-5402.83
-3329.6
-4825.31
-5340.71
-5480.36
-19385.1
-13007.6
-12839.5
-9208.02
-9215.07
-9734.11
-4658.52
-5900.18
-7283.97
-14193.2
-12406.9
-10554.6
-9900.3
-8612.24
-9426.09
-6510.22
-5105.46
-3959.97
-2049.32
-4591.57
-3835.86
-2895.53
-1814.12
-622.278
-3738.27
-3145.26
-2378.53
-1483.7
-504.964
-2844.8
-2389.99
-1804.02
-1123.21
-381.728
-4005.08
-3375.03
-2553
-1590.75
-540.511
-3653.81
-3065.89
-2314.16
-1442.62
-491.089
-9575.11
-8031.36
-6686.03
-6090.52
-6073.55
-10950.6
-9510.59
-7751.71
-6227.13
-3704.9
-8359.63
-5895.79
-4468.18
-3135.56
-1367.5
-9970.81
-8282.59
-6528.64
-4812.87
-2330.69
-6731.06
-5410.94
-4003.34
-2507.5
-875.171
-8896.46
-6647.68
-4872.28
-3103.82
-1138.62
-5277.88
-4315.3
-3210.86
-2000.91
-687.9
-5486.7
-4472.43
-3322.59
-2070.92
-712.926
-4061.65
-3341.74
-2491.51
-1548.78
-529.312
-14484.2
-11674.9
-9800.85
-8755.05
-8073.62
-8834.9
-6792.78
-5191.6
-3587.33
-1582.44
-3792.23
-3101.27
-2316.01
-1454.49
-506.713
-6227.81
-5120.58
-3851.49
-2441.82
-861.956
-7879.23
-6392.21
-4843.38
-3172.73
-1203.51
-5565.15
-4571.22
-3449.8
-2204.68
-786.338
-6250.69
-5177.1
-3910.65
-2478.99
-868.514
-4766.87
-3959.66
-2982.16
-1872.28
-645.822
-2945.48
-2446.18
-1833.53
-1140.38
-388.745
-4301.47
-3598.15
-2710.16
-1688.42
-575.125
-4684.6
-3866.15
-2893.1
-1806.05
-620.439
-4833.76
-4011.34
-3015.39
-1888.16
-649.717
-13742.1
-11619.4
-9918.34
-9021.73
-8006.03
-9200.23
-6701.92
-5243.81
-3935.06
-2008.12
-9938.64
-8148.86
-6419.23
-4816.28
-2334.51
-7399.3
-5751.68
-4417.77
-3045.36
-1241.81
-7816.63
-6367.42
-4840.82
-3181.44
-1202.25
-7819.08
-6065.29
-4653.98
-3200.61
-1292.58
-4080.25
-3375.24
-2545.23
-1610.24
-563.016
-5249.45
-4386.37
-3306.09
-2064.7
-705.293
-6364.91
-5254.36
-3959.04
-2506.07
-876.829
-485.722
-1382.32
-2196.76
-2965.15
-3694.87
-4376.46
-2620.4
-7040.92
-6692.68
-2566.31
-8953.6
-7506.51
-8957.81
-9916.7
-2375.04
-1533.77
-5516.22
-3194.61
-10501.5
-7438.77
226.974
-2126.54
-5870.55
-5502.64
-2067.69
-7621.15
-6126.11
-7516.98
-8464.16
-1966.44
-906.672
-4738.61
-1672.22
-8710.3
-4452.93
1537.48
-1554.75
-4468.44
-4176.5
-1516.77
-6026.56
-3688.83
-6103.69
-6761.76
-1484.11
-825.343
-3359.24
-1738.2
-6960.95
-1783.49
1675.31
-1146.4
-3462.54
-3304.02
-1159.6
-4618.44
-2253.33
-5076.9
-5973.94
-1117.99
-866.856
-2461.59
-1756.07
-6131.88
-374.42
1259.53
-927.577
-2939.6
-2850.48
-979.212
-3716.75
-1871.29
-4558.35
-5800.92
-886.017
-943.665
-1773.44
-1686.61
-5353.74
-158.927
135.503
-820.062
-2626.23
-2620.07
-887.887
-3444.75
-2129.82
-4225.94
-5548.38
-685.271
-740.531
-1468.23
-1651.93
-5267.09
-954.122
-470.024
-1389.56
-3399.62
-4950.57
-1913.96
-5508.53
-9623.54
-7261.64
-10466.9
-1016.11
-723.999
-3899.63
-2424.87
-1194.01
-9254.65
-4850.55
-1295.69
-3176.97
-4360.28
-1667.03
-5105.26
-8723.15
-6571.25
-8938.5
-1042
-644.425
-4048.35
-2303.87
-374.028
-9106.66
-3672.48
-1144.84
-2816.66
-3589.85
-1345.98
-4669.18
-7843.08
-5618.34
-7904.49
-930.757
-741.279
-3485.06
-2410.16
-588.134
-7404.63
-3528.88
-996.732
-2553.95
-2998.27
-1100.58
-4380.57
-7166.72
-5029.17
-7215.96
-860.592
-753.235
-3246.13
-2520.72
-385.12
-6905.46
-3579.13
-905.938
-2308.51
-2676.06
-968.032
-3997.79
-6611.33
-4609.02
-6882.66
-810.647
-811.121
-2968.16
-2734.81
-523.588
-6658.19
-3663.76
-844.356
-2067.92
-2489.36
-893.83
-3701.07
-6537.92
-4294.13
-6668.94
-843.564
-938.471
-2653.29
-2604.96
-774.309
-6821.99
-4058.42
6003.32
7580.04
15723.8
22977.4
23388.2
40310.3
17973.1
45774.4
14650.8
32169.1
21932.7
33293.3
19662
25832.7
7426.9
8419.35
14720.8
16848
19021.6
18865
14983.3
18517.4
22085
19820.4
4945.99
3745.51
6070.84
4091.33
12427.2
9894.1
21279.5
15381.7
16432.8
17099.2
18242.7
17380.4
6379.33
4988.28
38984
52189.9
25176.3
30913.4
52460.1
68064.8
27131.4
31061.4
28884.4
40806.7
25192
33403.4
14738
23764.4
2660.91
911.472
2731.45
995.204
8487.62
3422.17
11696
4299.41
8302.46
3185.71
8841.61
2833.2
15099.2
4802.35
19487
6572.12
23893
11850.7
21872.3
12964.8
22425.1
14501.1
19721.6
14841.2
17177.4
10200.8
17172.5
8739.65
22566.2
14437.9
22615.6
14574.8
20829.5
15717.5
21081.6
15791.6
18557.9
11789.4
19223
12082.3
17537.7
7586.32
8093.11
9846.1
17611.2
8290.14
7052.98
9966.66
18578.4
7555.52
9180.45
9926.38
19502
7740.14
9989.26
10374.7
3434.69
3708.32
1177.21
2247.8
10659.9
11275.2
4106.38
7272.77
13705.1
15240
6586.06
11192.5
12279.7
1106.82
13538.1
16660.1
9026.82
767.907
7468.14
12148.7
19558
13518.7
9838.13
11933.7
10412.2
8962.58
14051.8
3211.14
2624.54
1813.25
1823.23
9946.51
8406.94
6014.56
5705.96
12393.8
10523.2
7786.43
6990.45
5863.7
7454.47
12091.2
12520.5
14008.1
12748.5
15785.8
13757.7
10640.5
8953.99
9045.02
9552.52
11933.4
9463.19
10864.9
7950.73
9391.6
6510.18
10916.5
7170.45
10230.1
4830.75
8774.33
9535.31
12549.6
16399.2
13802.8
20112.2
6976.08
7773.33
9056.96
2957.79
7815.79
15084.7
7413.16
16164.6
13663.9
24822
13901.8
26334
5900.49
12947
5358.81
13789.5
8146.33
6185.52
11317.6
4506.03
8400.65
1732.95
9877.03
817.721
7821.48
9247.43
11854.2
5490.4
6465.49
10895.9
10485.9
7196.69
2062.29
1837.42
1676.51
1521.98
1410.26
1278.23
6902.32
5681.3
4930.44
4433.87
3577.97
3109.66
8452.51
7322.3
6777.68
5308.19
4357.69
4128.88
6575.61
5845.85
5712.34
10944.1
8372.45
7072.99
10282.3
7649.72
6230.28
10800.4
8573.8
7476.95
6671.47
4428.01
3469.04
15748.9
13691.5
11897.6
10096.3
8446.58
7047.99
8938.81
6990.91
5613.13
7482.71
5439.93
4206.87
7657.92
4287.05
2436.29
10308.7
13992.4
8139.05
10548.8
11093.8
16317.5
9901.35
14441.6
79.8641
636.168
-422.251
58.8255
2958.3
3425.16
1223.49
735.173
659.33
2371.68
9357.95
13677
6629.17
3626.56
9846.69
9777.51
15164.7
16705.6
-614.42
-4118.62
7532.9
7108.37
7144.13
5514.29
895.119
496.175
558.497
227.403
2040.16
217.539
-297.866
-844.215
9208.69
2402.6
6218.1
1627.39
8994.25
2748.65
10895.2
3519.63
8776.77
11893.9
8123.99
11608.1
14095.1
14947.2
13460.7
14163.7
5634.2
9432.79
6499.69
9366.05
8626.54
11188.5
9521.84
11310.9
14029
13917.8
14693.9
13982.5
5692.16
9135.13
6199.25
9311.66
-104.878
1397.24
7481.68
4762.68
-675.385
980.684
6931.16
4212.71
353.476
1652.58
7655.38
5189.22
812.373
1926.95
7704.45
5380.4
-657.104
-754.182
156.259
12.8597
-2901.19
-2941.52
-204.442
-356.848
-590.943
-1992.56
1717.32
1067.45
-10264.2
-9543
-5583.14
-4273.43
-414.063
-10468.7
-10809.4
-4335.34
-6404.56
-805.921
10201.5
8027.84
7179.86
6790.35
4196.9
-784.831
-728.696
-51.0582
50.3338
-2562.58
-2543.12
-63.8107
190.351
-2606.3
-3185.46
734.426
1078.09
-5137.2
-2350.11
-8194.49
-5166.98
-3669.7
-2804.58
-4138.53
-3617.3
500.673
1473.72
3754.32
2371.47
1028.9
-1039.19
1020.95
-764.415
1770.4
420.73
2215.99
2543.93
5236.27
4800.02
9960.4
6018.65
8104.98
8180.73
12308.4
9984.38
7909.51
4680.57
3959.74
3947.27
11741.9
5195.13
12918.2
5826.51
13728.8
10189.9
14652.9
10920.5
9589.55
3818.89
10743.9
4425.36
6327.21
5066.79
4985.88
7400.67
4116.27
4661.92
4271.46
6863.81
7293.65
5019.22
5629.92
8493.51
8846.19
5456.48
7017.79
8774.18
-753.923
-793.811
-893.574
-44.2231
-293.768
-326.064
-2855.05
-3065.49
-3076.42
-186.185
-838.653
-850.535
-3636.42
-4087.24
-4207.7
625.136
-825.951
-1126.28
-1273.43
-1091.89
-790.294
-3835.56
-3933.85
-3677.3
-3144.23
-3572.36
-3522
-3890.02
-4211.45
-4121.71
1406.41
-364.45
-501.936
3444.71
1955.87
1027.54
-1046.32
-2199.05
-2815.32
-998.99
-2483.08
-3131.55
-431.769
-2048.06
-2515.5
2407.1
-518.718
-868.29
-23.2832
-36.1772
-48.0358
-72.8247
-253.028
-144.242
-121.259
-118.185
-8.28011
-80.0639
-188.229
-294.557
-437.68
-285.559
-323.952
-352.142
229.121
-32.4457
-268.641
-522.483
-163.804
-235.839
-306.71
-351.692
-39.3747
-142.489
-148.584
-146.853
215.721
5.06872
-124.381
-212.09
961.101
195.828
-103.517
-318.514
1506.29
349.48
-6.56101
-546.986
668.934
80.4649
-187.462
-468.062
1238.3
265.274
12.5258
-478.256
1023.99
235.198
-130.446