/*--------------------------------*- C++ -*----------------------------------*\
  =========                 |
  \\      /  F ield         | OpenFOAM: The Open Source CFD Toolbox
   \\    /   O peration     | Website:  https://openfoam.org
    \\  /    A nd           | Version:  11
     \\/     M anipulation  |
\*---------------------------------------------------------------------------*/
FoamFile
{
    format      ascii;
    class       volScalarField;
    location    "100";
    object      epsilon;
}
// * * * * * * * * * * * * * * * * * * * * * * * * * * * * * * * * * * * * * //

dimensions      [0 2 -3 0 0 0 0];

internalField   nonuniform List<scalar> 
12225
(
285.523
270.712
257.907
243.825
232.441
223.117
216.773
212.721
212.757
213.999
217.27
221
228.219
232.933
241.769
246.442
256.842
258.554
52.4869
91.9002
106.961
114.779
124.832
136.843
152.703
170.012
191.239
211.133
235.586
255.88
281.874
300.143
326.486
341.396
367.806
385.96
20.526
34.8808
44.6666
50.4826
55.3854
59.6309
64.6567
69.6813
76.3369
83.266
91.5224
99.5031
108.378
117.37
126
136.366
143.643
156.997
16.003
19.4888
24.0765
27.5698
30.4915
32.8792
35.1518
37.3087
39.5046
41.9471
44.3546
47.2652
49.7349
53.1739
55.5568
59.5393
61.7794
66.4858
15.0386
15.7133
17.3969
19.0814
20.6368
22.0303
23.2445
24.4379
25.4447
26.6068
27.5298
28.7817
29.6532
31.0325
31.8685
33.372
34.1838
35.914
14.7897
14.8258
15.2493
15.8686
16.5663
17.2889
17.9229
18.5873
19.1196
19.7394
20.1966
20.8089
21.2183
21.8422
22.222
22.8698
23.2176
23.9587
14.7657
14.6147
14.6409
14.726
14.9345
15.2207
15.4912
15.8102
16.0712
16.385
16.6198
16.9247
17.1357
17.436
17.6268
17.9326
18.0961
18.4497
14.7686
14.5867
14.4659
14.3802
14.3676
14.3895
14.4395
14.5338
14.6185
14.7375
14.8316
14.9583
15.0498
15.1802
15.2659
15.4016
15.4739
15.6407
14.768
14.591
14.4349
14.2963
14.185
14.1044
14.0398
14.0067
13.9814
13.9787
13.9811
13.9922
14.0044
14.0313
14.0482
14.0846
14.1015
14.1601
14.7665
14.594
14.432
14.2821
14.1429
14.0219
13.9114
13.8193
13.7369
13.6697
13.6101
13.5633
13.5181
13.4874
13.4521
13.4354
13.4036
13.4043
14.7659
14.5945
14.4322
14.2803
14.1361
14.0032
13.8781
13.7643
13.658
13.5627
13.4733
13.3949
13.3195
13.2558
13.1914
13.1408
13.0841
13.0461
14.7657
14.5943
14.4321
14.2798
14.1353
13.9998
13.8714
13.7517
13.6384
13.5335
13.4338
13.3427
13.2554
13.1767
13.0999
13.0326
12.9646
12.9076
14.7657
14.5941
14.432
14.2794
14.135
13.9989
13.8698
13.7484
13.6331
13.5248
13.4218
13.3255
13.2335
13.1481
13.066
12.9903
12.917
12.8502
14.7657
14.594
14.4318
14.2791
14.1346
13.9983
13.8691
13.7472
13.6315
13.5222
13.4183
13.3202
13.2269
13.1388
13.0549
12.9758
12.9002
12.8292
14.7657
14.5938
14.4317
14.2787
14.1342
13.9977
13.8686
13.7464
13.6307
13.5211
13.4171
13.3185
13.2249
13.1361
13.0516
12.9715
12.8953
12.823
14.7657
14.5938
14.4316
14.2785
14.1339
13.9973
13.8681
13.7458
13.63
13.5203
13.4162
13.3175
13.2237
13.1348
13.0502
12.9699
12.8935
12.8208
14.7657
14.5937
14.4315
14.2783
14.1337
13.997
13.8677
13.7453
13.6295
13.5196
13.4155
13.3167
13.2229
13.1338
13.0492
12.9687
12.8922
12.8195
14.7657
14.5937
14.4314
14.2782
14.1335
13.9968
13.8674
13.745
13.6291
13.5192
13.415
13.3161
13.2222
13.1331
13.0484
12.9679
12.8913
12.8185
14.7657
14.5937
14.4314
14.2782
14.1335
13.9967
13.8673
13.7449
13.6289
13.519
13.4147
13.3158
13.2219
13.1327
13.048
12.9674
12.8908
12.8179
14.7657
14.5937
14.4314
14.2782
14.1336
13.9968
13.8675
13.745
13.6291
13.5191
13.4149
13.316
13.2222
13.1329
13.0483
12.9676
12.8911
12.8181
14.7657
14.5937
14.4315
14.2784
14.1338
13.9971
13.8678
13.7454
13.6295
13.5197
13.4155
13.3168
13.2231
13.1341
13.0496
12.9693
12.893
12.8204
14.7657
14.5937
14.4316
14.2785
14.1341
13.9975
13.8685
13.7465
13.6312
13.5221
13.4192
13.3215
13.2295
13.1421
13.0597
12.9813
12.9077
12.8372
14.7659
14.5937
14.4318
14.2788
14.1353
14.0002
13.8742
13.756
13.6464
13.5436
13.4486
13.3593
13.2772
13.1994
13.1284
13.0603
12.9991
12.9389
14.7661
14.5928
14.4329
14.2844
14.1515
14.0322
13.929
13.8376
13.7593
13.6894
13.6307
13.577
13.5328
13.4905
13.4574
13.4229
13.3987
13.3691
14.7641
14.5937
14.461
14.3604
14.3029
14.2767
14.2796
14.2939
14.3201
14.3529
14.3957
14.4343
14.4821
14.5213
14.5714
14.6082
14.6606
14.6927
14.757
14.6921
14.7579
14.9173
15.1827
15.4611
15.7473
16.012
16.2719
16.5034
16.7354
16.9378
17.1495
17.3295
17.5291
17.6914
17.8859
18.0325
14.9575
15.4344
16.5692
17.6885
18.705
19.5677
20.3366
20.9965
21.6182
22.1651
22.7168
23.2088
23.7365
24.2006
24.7274
25.1765
25.7168
26.1564
16.258
20.939
25.0148
27.7589
29.7837
31.3584
32.775
34.0573
35.3558
36.6134
37.969
39.2911
40.7506
42.1347
43.7002
45.1541
46.8558
48.3269
29.9427
47.2248
54.87
58.6728
61.6118
64.4298
67.5741
70.9729
74.7264
78.7006
82.963
87.3185
91.8672
96.4062
101.04
105.555
110.087
114.478
165.79
160.073
154.9
149.564
144.48
139.677
135.614
132.109
129.269
126.971
125.317
124.039
123.332
122.818
122.815
122.965
123.245
123.801
3.65896
2.27539
3.38426
4.36213
5.23848
6.02234
6.70975
7.2697
7.6529
7.8002
7.60796
7.54005
7.69994
7.79749
7.355
5.59566
5.73722
6.27988
6.99236
7.67693
8.90433
42.1623
49.4605
55.8592
63.0955
71.0689
79.8373
89.3368
99.5784
110.474
122.016
134.102
146.724
159.771
173.235
187.01
201.099
215.402
229.935
244.607
259.445
274.369
289.415
304.513
319.704
334.921
350.207
365.504
380.852
396.199
411.583
426.956
442.353
457.727
473.107
488.452
503.786
519.071
534.323
549.513
564.647
579.705
594.682
609.569
624.349
639.025
653.566
667.987
682.242
696.371
710.316
724.143
737.78
751.321
764.675
777.958
791.068
804.146
817.086
830.052
842.913
855.86
868.752
881.805
894.838
908.089
921.363
934.886
948.482
962.254
975.995
989.3
1001.44
1010.77
1011.34
1024.04
1052.5
1056.43
1083.39
1087.13
1113.15
1116.06
1128.1
1143.91
1156.77
1187.84
1195.78
1201.09
1220.17
1223.35
1233.19
1233.69
1241.71
1259.28
1256.4
1261.92
1276.51
1274.1
1272.17
1279.72
1273.87
1270.02
1262.78
1253.58
1242.37
1229.26
1214.18
1197.15
1178.06
1157.07
1134.19
1109.58
1083.38
1055.77
1026.48
995.904
964.326
931.961
899.05
865.811
832.271
798.914
766.429
733.369
702.954
680.976
661.131
641.687
622.462
603.552
584.999
566.878
549.273
531.855
514.749
498.437
482.767
467.492
452.68
438.417
424.796
411.849
399.52
387.771
376.614
366.036
356.014
346.524
337.552
329.063
321.038
313.413
306.212
299.207
292.753
285.766
280.147
271.529
266.529
243.821
8.05628
4.91799
4.64319
4.87291
5.29977
5.82904
6.42479
7.06198
7.72189
8.40594
9.15093
10.005
10.9878
12.0967
13.3875
15.0704
17.1142
19.3883
22.1017
25.6162
30.4746
37.4762
42.1142
46.5557
51.2123
56.0986
61.2119
66.5169
71.9837
77.5859
83.3082
89.1294
95.0397
101.023
107.074
113.18
119.339
125.543
131.793
138.081
144.411
150.778
157.188
163.639
170.121
176.63
183.167
189.728
196.312
202.916
209.54
216.179
222.832
229.493
236.162
242.833
249.504
256.17
262.827
269.471
276.099
282.705
289.285
295.834
302.349
308.825
315.256
321.641
327.973
334.25
340.468
346.63
352.731
358.777
364.762
370.696
376.572
382.405
388.189
393.94
399.649
405.338
410.994
416.638
422.252
427.858
433.431
438.982
444.476
449.896
455.156
460.157
464.785
468.965
472.884
478.337
484.213
486.765
494.228
495.797
503.846
504.783
512.084
513.937
521.542
525.521
529.76
531.89
538.392
540.406
543.39
545.296
548.129
550.613
549.924
554.518
556.222
555.142
555.437
557.597
555.778
554.363
552.042
548.958
545.224
540.813
535.712
529.912
523.375
516.127
508.128
499.402
489.982
479.911
469.178
457.877
446.093
433.897
421.366
408.578
395.577
382.463
369.388
356.182
343.232
331.744
320.941
310.44
300.14
290.057
280.214
270.633
261.347
252.267
243.23
234.489
226.074
217.936
210.08
202.521
195.285
188.39
181.826
175.579
169.647
164.025
158.702
153.667
148.912
144.422
140.192
136.197
132.451
128.877
125.612
122.346
119.69
116.585
116.695
117.126
14.4827
7.93868
6.85387
6.7495
7.00936
7.47633
8.10128
8.87497
9.80664
10.9095
12.1872
13.6495
15.3093
17.1793
19.2802
21.6207
24.1353
26.8086
29.7058
32.9173
36.4962
40.3639
44.2226
48.145
52.1917
56.372
60.6212
64.9262
69.3175
73.7962
78.3578
82.994
87.6996
92.4707
97.3069
102.2
107.147
112.144
117.189
122.279
127.414
132.591
137.81
143.067
148.36
153.687
159.047
164.437
169.856
175.303
180.775
186.271
191.788
197.324
202.876
208.442
214.019
219.603
225.191
230.78
236.366
241.945
247.512
253.065
258.598
264.107
269.586
275.033
280.442
285.809
291.129
296.401
301.62
306.783
311.888
316.932
321.914
326.832
331.684
336.47
341.188
345.838
350.418
354.926
359.357
363.709
367.974
372.143
376.203
380.139
383.927
387.55
391.004
394.341
397.686
401.232
404.637
407.603
411.097
413.75
417.182
419.563
422.848
425.345
428.661
431.177
433.63
435.804
438.473
440.228
442.041
443.619
445.249
446.575
447.406
448.923
449.682
449.659
449.549
449.669
448.706
447.533
445.852
443.644
440.937
437.7
433.91
429.548
424.596
419.05
412.905
406.171
398.869
391.025
382.665
373.84
364.607
355.018
345.131
334.999
324.667
314.192
303.655
293.093
282.708
272.87
263.44
254.274
245.319
236.575
228.058
219.784
211.769
203.988
196.401
189.065
181.964
175.058
168.393
161.967
155.795
149.895
144.263
138.895
133.789
128.942
124.347
119.995
115.881
111.996
108.333
104.879
101.639
98.5786
95.7519
93.0487
90.7192
88.3416
87.3967
87.2469
21.7665
11.3664
9.47716
9.08411
9.23124
9.68427
10.3623
11.2406
12.3164
13.5947
15.0817
16.7822
18.6939
20.8083
23.1116
25.5833
28.1946
30.9343
33.8199
36.8805
40.132
43.548
47.0807
50.7183
54.4549
58.2771
62.2036
66.2408
70.3726
74.5948
78.9043
83.2864
87.7319
92.2289
96.7913
101.418
106.109
110.862
115.673
120.542
125.465
130.441
135.467
140.542
145.662
150.828
156.035
161.284
166.571
171.896
177.256
182.651
188.076
193.532
199.015
204.522
210.052
215.601
221.165
226.742
232.328
237.918
243.508
249.094
254.67
260.232
265.773
271.289
276.773
282.219
287.623
292.978
298.278
303.517
308.691
313.793
318.818
323.761
328.617
333.381
338.048
342.615
347.075
351.425
355.658
359.769
363.75
367.595
371.294
374.843
378.235
381.469
384.56
387.54
390.452
393.315
396.047
398.619
401.164
403.5
405.852
407.97
410.156
412.175
414.248
416.089
417.818
419.429
421.012
422.32
423.541
424.644
425.67
426.53
427.152
427.591
427.654
427.451
427.121
426.592
425.578
424.238
422.487
420.293
417.641
414.503
410.832
406.624
401.864
396.545
390.664
384.23
377.258
369.773
361.805
353.397
344.597
335.454
326.018
316.339
306.471
296.485
286.462
276.474
266.64
257.107
247.862
238.861
230.084
221.533
213.223
205.164
197.369
189.831
182.539
175.51
168.739
162.214
155.937
149.869
144.018
138.409
133.037
127.903
123.009
118.353
113.93
109.734
105.762
102.005
98.4607
95.1199
91.9817
89.03
86.2865
83.7117
81.4151
79.2677
77.7278
77.1278
29.3943
15.1152
12.3481
11.6538
11.6772
12.0968
12.7908
13.714
14.8513
16.1997
17.7599
19.5301
21.5032
23.6656
25.9993
28.4848
31.1045
33.8493
36.7217
39.7301
42.8793
46.1627
49.5687
53.0883
56.7158
60.4468
64.2822
68.2207
72.2569
76.3848
80.5997
84.9029
89.2933
93.7712
98.3352
102.98
107.704
112.503
117.376
122.319
127.331
132.409
137.551
142.755
148.018
153.338
158.713
164.143
169.623
175.154
180.733
186.358
192.028
197.74
203.492
209.281
215.105
220.961
226.846
232.756
238.686
244.632
250.59
256.554
262.518
268.476
274.421
280.346
286.244
292.107
297.927
303.697
309.407
315.05
320.617
326.099
331.488
336.776
341.955
347.017
351.955
356.761
361.427
365.948
370.316
374.525
378.567
382.437
386.129
389.64
392.971
396.122
399.108
401.945
404.655
407.238
409.678
411.968
414.136
416.156
418.063
419.828
421.505
423.065
424.534
425.855
427.04
428.1
429.05
429.85
430.515
431.07
431.542
431.754
431.679
431.509
431.138
430.536
429.732
428.679
427.285
425.562
423.463
420.958
418.02
414.622
410.718
406.297
401.341
395.842
389.794
383.205
376.087
368.465
360.368
351.836
342.912
333.644
324.083
314.29
304.333
294.285
284.222
274.219
264.358
254.721
245.325
236.165
227.238
218.555
210.125
201.963
194.076
186.465
179.129
172.072
165.293
158.783
152.538
146.541
140.787
135.262
129.945
124.853
119.985
115.343
110.922
106.721
102.737
98.9588
95.3916
92.0288
88.8669
85.8972
83.1287
80.5488
78.2095
76.0855
74.3469
73.2859
36.923
18.9469
15.3028
14.2942
14.1869
14.5508
15.2311
16.1601
17.31
18.6695
20.2334
21.9965
23.951
26.0849
28.3841
30.8336
33.4209
36.138
38.9821
41.9538
45.054
48.2808
51.6308
55.1002
58.6863
62.3868
66.2009
70.1269
74.1629
78.3064
82.5557
86.91
91.3686
95.9304
100.594
105.356
110.215
115.167
120.211
125.343
130.561
135.862
141.244
146.704
152.24
157.85
163.531
169.281
175.098
180.981
186.927
192.935
199.003
205.128
211.309
217.542
223.826
230.157
236.531
242.944
249.393
255.872
262.375
268.896
275.429
281.966
288.498
295.018
301.517
307.984
314.409
320.782
327.091
333.327
339.476
345.529
351.473
357.297
362.989
368.54
373.938
379.174
384.238
389.121
393.814
398.31
402.602
406.683
410.549
414.199
417.633
420.853
423.868
426.691
429.332
431.795
434.079
436.185
438.122
439.889
441.494
442.937
444.233
445.383
446.394
447.257
447.96
448.499
448.912
449.207
449.294
449.165
448.972
448.564
447.989
447.249
446.317
445.173
443.806
442.185
440.265
438.024
435.429
432.446
429.044
425.192
420.858
416.021
410.661
404.766
398.33
391.358
383.861
375.86
367.384
358.47
349.163
339.515
329.588
319.45
309.172
298.826
288.486
278.219
268.091
258.16
248.452
238.981
229.756
220.792
212.099
203.69
195.573
187.752
180.228
173.001
166.07
159.43
153.072
146.987
141.164
135.593
130.26
125.14
120.229
115.53
111.043
106.77
102.712
98.8587
95.2186
91.7845
88.5527
85.518
82.6844
80.0497
77.6414
75.4665
73.6048
72.1947
44.111
22.7018
18.2019
16.8736
16.6286
16.923
17.5702
18.4811
19.6155
20.9547
22.4888
24.211
26.1139
28.1887
30.4253
32.8134
35.3439
38.0103
40.8089
43.7379
46.7969
49.9849
53.3012
56.7444
60.3138
64.0087
67.8289
71.7736
75.8426
80.035
84.3503
88.788
93.3475
98.0277
102.827
107.744
112.777
117.923
123.179
128.543
134.013
139.585
145.256
151.025
156.889
162.845
168.891
175.025
181.244
187.547
193.932
200.397
206.939
213.558
220.25
227.013
233.845
240.741
247.699
254.714
261.781
268.895
276.049
283.237
290.45
297.679
304.917
312.151
319.371
326.565
333.722
340.826
347.866
354.826
361.693
368.451
375.087
381.585
387.931
394.112
400.112
405.921
411.525
416.912
422.073
426.999
431.68
436.11
440.286
444.203
447.864
451.269
454.423
457.337
460.016
462.468
464.695
466.703
468.495
470.077
471.454
472.628
473.609
474.396
474.997
475.444
475.692
475.692
475.485
475.168
474.649
473.964
473.12
472.086
470.874
469.477
467.882
466.071
464.029
461.731
459.148
456.252
453.014
449.403
445.388
440.936
436.02
430.614
424.699
418.259
411.289
403.789
395.77
387.25
378.259
368.833
359.026
348.895
338.506
327.93
317.237
306.499
295.783
285.152
274.665
264.367
254.292
244.46
234.888
225.592
216.586
207.88
199.483
191.399
183.629
176.175
169.033
162.198
155.663
149.418
143.454
137.759
132.32
127.12
122.141
117.357
112.774
108.398
104.236
100.283
96.5427
93.0106
89.6842
86.56
83.6396
80.9245
78.4309
76.173
74.1993
72.5251
50.7541
26.2472
20.9328
19.2879
18.9011
19.1172
19.7193
20.5981
21.7022
23.0061
24.4961
26.1642
28.004
30.0089
32.1725
34.488
36.9497
39.5527
42.2941
45.1721
48.1858
51.3351
54.62
58.0405
61.597
65.2899
69.12
73.0877
77.1936
81.438
85.8214
90.3439
95.0055
99.8056
104.744
109.818
115.027
120.37
125.844
131.446
137.174
143.025
148.998
155.089
161.295
167.615
174.046
180.586
187.232
193.984
200.839
207.794
214.849
222.002
229.249
236.589
244.018
251.534
259.132
266.808
274.557
282.372
290.247
298.174
306.143
314.146
322.171
330.205
338.237
346.252
354.234
362.17
370.041
377.831
385.522
393.096
400.536
407.822
414.938
421.865
428.587
435.087
441.351
447.364
453.113
458.587
463.776
468.671
473.267
477.561
481.552
485.239
488.628
491.722
494.529
497.055
499.305
501.285
503
504.456
505.658
506.613
507.325
507.79
507.981
507.929
507.67
507.169
506.457
505.542
504.412
503.078
501.544
499.803
497.857
495.703
493.331
490.729
487.884
484.776
481.384
477.685
473.652
469.257
464.472
459.268
453.618
447.498
440.887
433.77
426.14
417.996
409.347
400.213
390.626
380.629
370.274
359.622
348.741
337.698
326.565
315.408
304.292
293.274
282.408
271.735
261.29
251.098
241.181
231.555
222.235
213.229
204.547
196.192
188.167
180.472
173.103
166.055
159.322
152.893
146.759
140.907
135.327
130.003
124.918
120.043
115.353
110.864
106.586
102.521
98.6708
95.0322
91.603
88.3807
85.3656
82.56
79.9738
77.6201
75.5331
73.6522
56.6884
29.4735
23.4071
21.4581
20.9299
21.0641
21.6153
22.4556
23.5235
24.7873
26.2303
27.8429
29.6193
31.5548
33.6453
35.887
38.2767
40.8115
43.4896
46.31
49.2724
52.377
55.6246
59.0161
62.5527
66.2357
70.0668
74.0473
78.179
82.463
86.9007
91.4932
96.2411
101.145
106.205
111.42
116.789
122.312
127.987
133.812
139.785
145.903
152.165
158.568
165.11
171.789
178.602
185.548
192.625
199.83
207.163
214.621
222.203
229.906
237.729
245.669
253.724
261.889
270.161
278.535
287.006
295.566
304.209
312.926
321.706
330.539
339.412
348.311
357.222
366.128
375.012
383.856
392.64
401.343
409.946
418.426
426.761
434.931
442.912
450.685
458.227
465.521
472.546
479.287
485.726
491.849
497.645
503.103
508.217
512.979
517.389
521.444
525.148
528.502
531.514
534.187
536.529
538.545
540.241
541.624
542.702
543.486
543.936
544.059
543.863
543.417
542.695
541.697
540.431
538.907
537.124
535.09
532.808
530.282
527.511
524.496
521.232
517.714
513.929
509.868
505.513
500.85
495.856
490.51
484.788
478.666
472.121
465.131
457.678
449.75
441.337
432.443
423.077
413.264
403.037
392.438
381.52
370.343
358.972
347.473
335.912
324.354
312.857
301.476
290.258
279.242
268.462
257.948
247.723
237.802
228.2
218.926
209.986
201.385
193.125
185.205
177.622
170.372
163.447
156.838
150.533
144.521
138.792
133.33
128.121
123.141
118.342
113.74
109.348
105.173
101.214
97.4697
93.9388
90.6187
87.5089
84.6111
81.9312
79.4789
77.2794
75.2312
61.795
32.2994
25.5628
23.332
22.6679
22.7216
23.2207
24.0215
25.0533
26.279
27.6787
29.2415
30.9615
32.8347
34.8589
37.0321
39.3529
41.8202
44.4336
47.1929
50.0988
53.1522
56.3544
59.7072
63.2126
66.8729
70.6905
74.6678
78.8074
83.1117
87.583
92.2232
97.0342
102.017
107.174
112.504
118.008
123.685
129.535
135.558
141.751
148.113
154.643
161.339
168.199
175.22
182.402
189.743
197.241
204.894
212.701
220.661
228.772
237.032
245.438
253.99
262.684
271.515
280.482
289.577
298.796
308.131
317.573
327.115
336.744
346.448
356.213
366.024
375.865
385.715
395.557
405.368
415.126
424.807
434.388
443.843
453.146
462.272
471.195
479.89
488.333
496.499
504.366
511.915
519.124
525.978
532.461
538.56
544.266
549.572
554.473
558.966
563.052
566.733
570.011
572.894
575.385
577.49
579.218
580.574
581.572
582.18
582.394
582.234
581.736
580.903
579.733
578.23
576.399
574.247
571.777
568.997
565.911
562.526
558.845
554.871
550.603
546.04
541.179
536.014
530.538
524.741
518.612
512.135
505.296
498.077
490.464
482.44
473.993
465.115
455.802
446.061
435.906
425.363
414.465
403.253
391.774
380.086
368.25
356.329
344.383
332.47
320.646
308.957
297.447
286.151
275.1
264.329
253.859
243.706
233.881
224.394
215.249
206.449
197.997
189.892
182.131
174.709
167.62
160.853
154.397
148.241
142.373
136.782
131.45
126.357
121.453
116.746
112.251
107.974
103.916
100.076
96.4522
93.0413
89.8426
86.8571
84.0876
81.5402
79.233
77.0461
66.0035
34.6739
27.3646
24.8839
24.0941
24.0746
24.521
25.2842
26.2837
27.4771
28.8416
30.3645
32.0391
33.8617
35.8308
37.9453
40.2053
42.6109
45.1627
47.8618
50.7094
53.7075
56.8583
60.1643
63.6285
67.254
71.0443
75.0029
79.1333
83.4389
87.9231
92.5891
97.4398
102.478
107.705
113.124
118.736
124.542
130.542
136.737
143.126
149.709
156.484
163.452
170.611
177.959
185.495
193.218
201.127
209.221
217.497
225.956
234.596
243.414
252.41
261.58
270.922
280.433
290.107
299.94
309.925
320.054
330.32
340.71
351.214
361.818
372.506
383.261
394.065
404.896
415.733
426.551
437.324
448.027
458.631
469.107
479.425
489.557
499.472
509.141
518.535
527.627
536.39
544.8
552.834
560.471
567.694
574.487
580.838
586.737
592.178
597.157
601.671
605.723
609.313
612.447
615.128
617.363
619.158
620.521
621.45
621.921
621.953
621.564
620.764
619.557
617.948
615.936
613.53
610.729
607.543
603.975
600.032
595.721
591.049
586.019
580.638
574.908
568.834
562.416
555.657
548.555
541.111
533.318
525.175
516.675
507.813
498.585
488.989
479.026
468.701
458.023
447.01
435.691
424.103
412.273
400.248
388.078
375.821
363.531
351.263
339.068
326.993
315.08
303.365
291.875
280.639
269.698
259.072
248.771
238.806
229.182
219.904
210.973
202.392
194.158
186.271
178.726
171.517
164.631
158.059
151.788
145.808
140.108
134.67
129.473
124.472
119.675
115.094
110.734
106.594
102.674
98.9712
95.4821
92.2057
89.1419
86.2912
83.6568
81.2508
78.9492
69.2821
36.5694
28.7952
26.1012
25.1966
25.1133
25.5161
26.2481
27.2222
28.3921
29.732
31.2273
32.8704
34.6571
36.5857
38.6558
40.8678
43.2227
45.722
48.3674
51.1614
54.1065
57.206
60.4635
63.883
67.4688
71.2253
75.1571
79.2687
83.5644
88.049
92.7267
97.6018
102.678
107.96
113.451
119.153
125.069
131.201
137.552
144.122
150.912
157.922
165.151
172.6
180.267
188.153
196.257
204.576
213.111
221.861
230.824
240
249.386
258.981
268.782
278.785
288.988
299.386
309.972
320.74
331.681
342.787
354.044
365.441
376.963
388.591
400.309
412.094
423.924
435.774
447.616
459.424
471.165
482.81
494.325
505.677
516.833
527.758
538.419
548.783
558.819
568.496
577.786
586.663
595.103
603.084
610.589
617.602
624.113
630.111
635.591
640.551
644.99
648.909
652.311
655.2
657.581
659.458
660.838
661.716
662.086
661.959
661.339
660.237
658.659
656.605
654.076
651.075
647.604
643.667
639.269
634.415
629.113
623.371
617.195
610.596
603.58
596.159
588.341
580.14
571.564
562.623
553.329
543.692
533.724
523.435
512.838
501.942
490.764
479.319
467.617
455.682
443.546
431.23
418.762
406.198
393.581
380.96
368.379
355.881
343.507
331.295
319.275
307.476
295.912
284.608
273.607
262.932
252.589
242.583
232.917
223.595
214.617
205.984
197.693
189.747
182.143
174.869
167.918
161.276
154.932
148.878
143.101
137.585
132.303
127.226
122.364
117.722
113.303
109.105
105.126
101.363
97.8132
94.4745
91.346
88.4266
85.7172
83.2248
80.8304
71.6308
37.9797
29.8564
26.9928
25.9932
25.857
26.2254
26.9344
27.8923
29.0494
30.3774
31.8601
33.4884
35.2572
37.1644
39.2092
41.3922
43.7146
46.1785
48.7862
51.5409
54.4463
57.5064
60.7261
64.1106
67.6654
71.3975
75.3108
79.4104
83.7018
88.1908
92.883
97.7842
102.9
108.237
113.799
119.591
125.619
131.886
138.397
145.154
152.159
159.412
166.915
174.668
182.671
190.924
199.426
208.177
217.176
226.422
235.914
245.651
255.631
265.85
276.308
286.998
297.919
309.063
320.424
331.995
343.767
355.728
367.866
380.167
392.615
405.19
417.872
430.638
443.464
456.321
469.18
482.009
494.777
507.446
519.982
532.347
544.504
556.416
568.044
579.352
590.305
600.87
611.013
620.705
629.92
638.633
646.823
654.473
661.569
668.1
674.059
679.441
684.246
688.473
692.125
695.205
697.717
699.664
701.052
701.878
702.14
701.841
700.966
699.544
697.575
695.054
691.981
688.353
684.172
679.439
674.157
668.33
661.965
655.069
647.653
639.726
631.305
622.402
613.039
603.236
593.017
582.404
571.427
560.116
548.503
536.618
524.499
512.162
499.616
486.852
473.963
460.986
447.968
434.962
421.973
408.987
396.041
383.171
370.411
357.795
345.352
333.11
321.092
309.317
297.791
286.516
275.595
265.011
254.759
244.838
235.252
226.001
217.084
208.498
200.234
192.309
184.718
177.45
170.495
163.841
157.476
151.393
145.581
140.022
134.687
129.572
124.679
120.008
115.56
111.331
107.319
103.52
99.931
96.5494
93.3737
90.4014
87.6322
85.0687
82.6031
73.0786
38.9156
30.564
27.5805
26.5111
26.3368
26.683
27.3807
28.335
29.4936
30.8266
32.316
33.9513
35.7264
37.6381
39.6852
41.8679
44.1874
46.6458
49.246
51.9919
54.8878
57.9393
61.1527
64.5334
68.0869
71.8196
75.7382
79.85
84.1622
88.6823
93.4178
98.3762
103.565
108.993
114.665
120.59
126.773
133.219
139.933
146.92
154.183
161.726
169.552
177.66
186.052
194.726
203.683
212.922
222.442
232.241
242.319
252.672
263.298
274.195
285.357
296.78
308.459
320.388
332.557
344.959
357.582
370.414
383.442
396.649
410.017
423.527
437.156
450.878
464.667
478.492
492.322
506.123
519.858
533.49
546.979
560.285
573.368
586.186
598.698
610.866
622.65
634.014
644.923
655.343
665.246
674.604
683.395
691.598
699.2
706.185
712.545
718.276
723.376
727.844
731.682
734.892
737.477
739.44
740.788
741.522
741.624
741.097
739.92
738.13
735.718
732.678
729.003
724.69
719.735
714.136
707.893
701.009
693.489
685.34
676.573
667.202
657.245
646.724
635.669
624.112
612.09
599.641
586.811
573.667
560.25
546.556
532.632
518.601
504.554
490.617
476.71
462.86
449.114
435.55
422.027
408.632
395.398
382.348
369.501
356.876
344.487
332.349
320.473
308.867
297.528
286.433
275.691
265.281
255.198
245.442
236.013
226.909
218.13
209.67
201.521
193.712
186.226
179.048
172.168
165.571
159.244
153.187
147.389
141.826
136.495
131.39
126.507
121.846
117.403
113.177
109.161
105.353
101.75
98.3479
95.1456
92.1394
89.3284
86.7114
84.1961
73.6526
39.3943
30.9421
27.896
26.7892
26.5977
26.9406
27.6455
28.6162
29.799
31.1626
32.6879
34.3629
36.1806
38.1367
40.2293
42.4579
44.8234
47.328
49.9747
52.7681
55.7135
58.8154
62.0791
65.5119
69.1213
72.9155
76.9029
81.0926
85.4941
90.1167
94.9702
100.064
105.409
111.013
116.886
123.036
129.47
136.196
143.219
150.545
158.178
166.121
174.38
182.955
191.846
201.053
210.576
220.413
230.561
241.019
251.784
262.851
274.217
285.877
297.824
310.052
322.553
335.319
348.34
361.604
375.1
388.812
402.726
416.823
431.084
445.487
460.007
474.619
489.292
503.996
518.696
533.357
547.939
562.403
576.706
590.808
604.664
618.23
631.466
644.328
656.775
668.77
680.275
691.255
701.68
711.52
720.751
729.352
737.304
744.595
751.213
757.153
762.413
766.992
770.891
774.112
776.657
778.529
779.735
780.266
780.12
779.26
777.693
775.443
772.495
768.84
764.467
759.369
753.537
746.966
739.653
731.599
722.805
713.28
703.034
692.084
680.452
668.17
655.272
641.815
627.843
613.411
598.512
583.224
567.696
552.113
536.604
521.142
505.87
490.617
475.537
460.687
446.109
431.829
417.828
404.12
390.716
377.618
364.83
352.35
340.177
328.309
316.742
305.473
294.495
283.804
273.424
263.359
253.608
244.168
235.038
226.214
217.695
209.473
201.525
193.899
186.577
179.545
172.793
166.309
160.068
154.096
148.37
142.879
137.618
132.579
127.755
123.146
118.749
114.561
110.575
106.788
103.198
99.8008
96.595
93.5764
90.7439
88.0931
85.5498
73.5139
39.4795
31.0494
28.0027
26.8948
26.7157
27.0862
27.8318
28.8562
30.1055
31.5475
33.162
34.9361
36.8617
38.9338
41.1496
43.5082
46.0099
48.6565
51.4505
54.3958
57.4968
60.7599
64.1919
67.8009
71.5957
75.5862
79.7827
84.1965
88.8388
93.7214
98.8561
104.255
109.929
115.891
122.15
128.716
135.598
142.805
150.343
158.219
166.435
174.996
183.901
193.156
202.761
212.713
223.009
233.647
244.622
255.929
267.563
279.516
291.783
304.353
317.218
330.368
343.792
357.478
371.412
385.582
399.971
414.564
429.342
444.286
459.375
474.585
489.892
505.267
520.68
536.099
551.489
566.813
582.031
597.102
611.984
626.633
641.006
655.059
668.748
682.031
694.866
707.216
719.041
730.308
740.985
751.042
760.453
769.196
777.253
784.608
791.249
797.171
802.37
806.845
810.599
813.631
815.941
817.535
818.424
818.57
818.002
816.63
814.511
811.631
807.979
803.537
798.293
792.233
785.346
777.623
769.057
759.645
749.388
738.295
726.376
713.65
700.151
685.914
670.976
655.315
639.019
622.227
605.182
587.983
570.659
553.416
536.085
518.891
501.957
485.329
469.087
453.287
437.963
423.131
408.783
394.91
381.497
368.527
355.98
343.835
332.069
320.661
309.593
298.847
288.409
278.267
268.421
258.871
249.614
240.644
231.959
223.553
215.424
207.567
199.974
192.654
185.606
178.818
172.283
165.991
159.914
154.086
148.495
143.132
137.991
133.064
128.34
123.831
119.525
115.416
111.497
107.765
104.217
100.852
97.6681
94.6602
91.8279
89.1638
86.6145
72.8884
39.3144
30.9803
27.9895
26.9398
26.8334
27.2949
28.1495
29.3027
30.7007
32.3117
34.1155
36.0991
38.2541
40.5748
43.058
45.7021
48.5069
51.4739
54.6054
57.9053
61.3785
65.0315
68.8718
72.9084
77.151
81.6106
86.2988
91.2283
96.412
101.863
107.595
113.623
119.958
126.616
133.605
140.936
148.618
156.661
165.07
173.85
183.003
192.529
202.427
212.693
223.327
234.325
245.68
257.388
269.439
281.824
294.532
307.553
320.873
334.48
348.359
362.495
376.873
391.477
406.29
421.295
436.473
451.808
467.278
482.863
498.543
514.293
530.089
545.905
561.71
577.473
593.162
608.739
624.167
639.406
654.416
669.155
683.581
697.651
711.324
724.561
737.32
749.566
761.262
772.376
782.875
792.732
801.921
810.419
818.206
825.266
831.586
837.158
841.979
846.048
849.366
851.932
853.743
854.802
855.112
854.685
853.424
851.344
848.454
844.733
840.164
834.727
828.405
821.178
813.033
803.955
793.937
782.971
771.058
758.206
744.433
729.745
714.116
697.601
680.308
662.444
644.093
625.306
606.316
586.976
567.543
548.181
528.987
510.108
491.676
473.788
456.524
439.94
424.063
408.896
394.419
380.602
367.406
354.79
342.709
331.118
319.974
309.235
298.868
288.84
279.125
269.702
260.56
251.689
243.083
234.735
226.638
218.785
211.174
203.803
196.663
189.756
183.084
176.635
170.405
164.395
158.597
153.017
147.653
142.499
137.549
132.797
128.233
123.863
119.683
115.685
111.864
108.215
104.744
101.443
98.3094
95.3392
92.5324
89.8786
87.3468
71.5375
38.8082
30.7453
27.9315
27.0405
27.0899
27.7345
28.8009
30.1986
31.8762
33.803
35.9596
38.3335
40.9165
43.7032
46.69
49.8753
53.2585
56.8403
60.6229
64.6101
68.8064
73.2178
77.8513
82.7152
87.8192
93.1739
98.7907
104.682
110.861
117.34
124.133
131.256
138.724
146.55
154.74
163.3
172.235
181.547
191.238
201.312
211.767
222.603
233.815
245.395
257.336
269.629
282.263
295.225
308.5
322.074
335.93
350.05
364.417
379.011
393.814
408.805
423.966
439.275
454.714
470.264
485.905
501.618
517.385
533.186
549.001
564.811
580.593
596.325
611.98
627.531
642.949
658.202
673.257
688.077
702.627
716.869
730.765
744.279
757.372
770.008
782.152
793.77
804.829
815.299
825.151
834.357
842.894
850.739
857.87
864.268
869.921
874.816
878.95
882.32
884.926
886.767
887.83
888.125
887.686
886.41
884.284
881.308
877.462
872.725
867.072
860.478
852.921
844.379
834.833
824.264
812.665
800.026
786.34
771.563
755.721