/*--------------------------------*- C++ -*----------------------------------*\
  =========                 |
  \\      /  F ield         | OpenFOAM: The Open Source CFD Toolbox
   \\    /   O peration     | Website:  https://openfoam.org
    \\  /    A nd           | Version:  11
     \\/     M anipulation  |
\*---------------------------------------------------------------------------*/
FoamFile
{
    format      ascii;
    class       volScalarField;
    location    "100";
    object      k;
}
// * * * * * * * * * * * * * * * * * * * * * * * * * * * * * * * * * * * * * //

dimensions      [0 2 -2 0 0 0 0];

internalField   nonuniform List<scalar> 
12225
(
0.362814
0.344001
0.327732
0.309838
0.295373
0.283524
0.275462
0.270313
0.270359
0.27192
0.276111
0.280772
0.290039
0.295998
0.306972
0.314254
0.323573
0.33782
0.440192
0.468696
0.461605
0.448377
0.450365
0.45834
0.474463
0.498846
0.524373
0.552604
0.580945
0.606926
0.634506
0.655116
0.681285
0.696176
0.72183
0.736624
0.390545
0.417868
0.42023
0.416824
0.411632
0.407808
0.408017
0.410057
0.414547
0.42152
0.430826
0.439905
0.4515
0.461557
0.473576
0.484652
0.495169
0.509745
0.377546
0.38698
0.391407
0.391342
0.390222
0.387897
0.385663
0.384085
0.382886
0.382908
0.383415
0.384364
0.386407
0.388585
0.39115
0.394636
0.397115
0.402267
0.374562
0.376089
0.378413
0.378665
0.378263
0.377204
0.375489
0.373735
0.372011
0.370452
0.369264
0.368112
0.367401
0.366853
0.366492
0.366494
0.366551
0.367099
0.373815
0.372709
0.372645
0.372383
0.371761
0.370814
0.369553
0.368079
0.366569
0.364971
0.363524
0.362059
0.360749
0.359536
0.358399
0.35746
0.356493
0.355902
0.373783
0.371742
0.370386
0.369286
0.368234
0.367112
0.365913
0.364583
0.363234
0.361802
0.360414
0.359015
0.357665
0.356372
0.355106
0.353959
0.352792
0.351824
0.37382
0.37156
0.369635
0.367976
0.3665
0.365106
0.363774
0.362426
0.361103
0.35976
0.358441
0.357133
0.355848
0.354606
0.353381
0.352229
0.35108
0.350041
0.373832
0.371553
0.369449
0.367525
0.365776
0.364152
0.362643
0.361196
0.359813
0.358467
0.357161
0.355892
0.354653
0.353458
0.352287
0.351174
0.350075
0.349054
0.373831
0.37156
0.369418
0.367405
0.365529
0.363772
0.362131
0.360583
0.359118
0.357722
0.356387
0.355108
0.353876
0.352695
0.351552
0.350462
0.349401
0.348403
0.373829
0.371561
0.369413
0.367378
0.365458
0.363645
0.361936
0.360322
0.358795
0.357348
0.355973
0.354664
0.353414
0.352223
0.351081
0.349994
0.348945
0.347956
0.373828
0.371559
0.369409
0.367371
0.365439
0.363608
0.361875
0.360232
0.358675
0.357198
0.355795
0.354462
0.353193
0.351986
0.350832
0.349737
0.348686
0.347692
0.373827
0.371557
0.369405
0.367365
0.36543
0.363593
0.36185
0.360196
0.358624
0.357132
0.355712
0.354363
0.353079
0.351859
0.350694
0.349588
0.34853
0.347528
0.373827
0.371555
0.369402
0.36736
0.365423
0.363583
0.361837
0.360177
0.3586
0.3571
0.355673
0.354315
0.353022
0.351792
0.350619
0.349504
0.348439
0.347427
0.373826
0.371553
0.369399
0.367355
0.365416
0.363575
0.361826
0.360164
0.358584
0.357081
0.355651
0.354289
0.352993
0.351758
0.350581
0.34946
0.348391
0.347372
0.373826
0.371552
0.369396
0.367351
0.36541
0.363568
0.361818
0.360154
0.358572
0.357068
0.355635
0.354272
0.352973
0.351736
0.350557
0.349434
0.348362
0.34734
0.373825
0.371551
0.369394
0.367348
0.365406
0.363562
0.361811
0.360146
0.358563
0.357057
0.355623
0.354258
0.352958
0.35172
0.350539
0.349414
0.34834
0.347317
0.373825
0.371551
0.369393
0.367346
0.365404
0.363559
0.361806
0.36014
0.358556
0.357049
0.355614
0.354248
0.352947
0.351707
0.350526
0.349399
0.348324
0.347299
0.373825
0.37155
0.369393
0.367346
0.365403
0.363557
0.361804
0.360138
0.358553
0.357045
0.35561
0.354243
0.352942
0.351701
0.350519
0.349391
0.348315
0.347289
0.373825
0.371551
0.369394
0.367346
0.365404
0.363559
0.361807
0.36014
0.358556
0.357048
0.355614
0.354247
0.352946
0.351704
0.350522
0.349394
0.348319
0.347293
0.373825
0.371552
0.369395
0.367349
0.365407
0.363564
0.361811
0.360147
0.358563
0.357057
0.355623
0.354259
0.352958
0.35172
0.350539
0.349413
0.348339
0.347315
0.373826
0.371553
0.369397
0.367352
0.365413
0.363571
0.361823
0.360162
0.358585
0.357085
0.355659
0.354301
0.35301
0.351779
0.350607
0.349489
0.348424
0.347406
0.373826
0.371554
0.369399
0.36736
0.365429
0.363603
0.361876
0.360241
0.358692
0.357222
0.355826
0.354496
0.353231
0.352023
0.350871
0.349768
0.348718
0.347708
0.373828
0.371551
0.369412
0.367417
0.365556
0.36382
0.36219
0.360652
0.359191
0.357796
0.356459
0.355175
0.353939
0.35275
0.351605
0.350501
0.349443
0.348418
0.373823
0.371554
0.369605
0.367893
0.36634
0.364893
0.363496
0.362123
0.360763
0.359416
0.358083
0.356773
0.355492
0.354242
0.353034
0.351861
0.35074
0.349652
0.373788
0.371991
0.371113
0.370266
0.369361
0.368312
0.367049
0.365631
0.364122
0.362577
0.361032
0.359525
0.358076
0.356685
0.355385
0.354145
0.353013
0.351928
0.374355
0.375572
0.377776
0.377858
0.377288
0.375886
0.373836
0.371642
0.369506
0.367483
0.365664
0.364083
0.36271
0.361533
0.360607
0.359814
0.359284
0.358792
0.379125
0.394297
0.39825
0.396574
0.392539
0.387604
0.383646
0.380448
0.378266
0.376849
0.37649
0.376732
0.377404
0.378673
0.380415
0.382391
0.384783
0.387087
0.408394
0.42754
0.422415
0.411054
0.402225
0.397919
0.398619
0.400951
0.40605
0.413026
0.420956
0.429774
0.438761
0.448102
0.457191
0.466421
0.475156
0.483998
0.36605
0.353414
0.341989
0.330208
0.318984
0.30838
0.299412
0.291669
0.285403
0.28033
0.276677
0.273857
0.272298
0.271154
0.271183
0.271438
0.272152
0.273338
0.0123486
0.0352726
0.0526063
0.0678519
0.0815209
0.0938433
0.10496
0.114724
0.122986
0.12972
0.13488
0.139947
0.144858
0.148647
0.150413
0.149634
0.164073
0.173698
0.178306
0.176979
0.171822
0.150177
0.167495
0.181674
0.197266
0.213525
0.230582
0.248293
0.266629
0.285419
0.304619
0.324063
0.343723
0.363449
0.383227
0.402933
0.422578
0.442057
0.461399
0.48052
0.499462
0.518156
0.536653
0.554897
0.572943
0.590741
0.608342
0.625705
0.642876
0.659819
0.676576
0.693115
0.70947
0.725612
0.741569
0.757314
0.772868
0.788209
0.80335
0.818274
0.832987
0.847478
0.861741
0.87578
0.889574
0.903139
0.916443
0.929514
0.942309
0.954866
0.967132
0.979165
0.990904
1.00243
1.01367
1.02471
1.03549
1.04611
1.05649
1.06677
1.07684
1.08686
1.09671
1.10658
1.11632
1.12612
1.13584
1.14563
1.15534
1.165
1.17433
1.18279
1.18928
1.18941
1.19812
1.21804
1.22055
1.23944
1.242
1.26047
1.26278
1.28197
1.28907
1.29894
1.30816
1.31229
1.32958
1.32877
1.32986
1.34731
1.3428
1.34845
1.36259
1.35953
1.36298
1.37384
1.37068
1.37828
1.37285
1.37391
1.37753
1.37285
1.36894
1.36216
1.35445
1.34525
1.33467
1.32272
1.30927
1.29433
1.27791
1.26009
1.24088
1.2204
1.19865
1.1755
1.15127
1.12605
1.09999
1.07326
1.04595
1.01806
0.990091
0.962398
0.933669
0.908244
0.889231
0.87132
0.853512
0.835736
0.818076
0.800571
0.783326
0.766277
0.749266
0.732451
0.716284
0.700529
0.684968
0.669725
0.654917
0.640646
0.626915
0.613673
0.600928
0.5887
0.57698
0.56575
0.55501
0.544737
0.534917
0.525495
0.516497
0.507687
0.499464
0.490562
0.483383
0.472154
0.465742
0.438308
0.0275863
0.0636009
0.0878773
0.106327
0.121995
0.135911
0.148494
0.160051
0.17086
0.181264
0.191709
0.202467
0.213576
0.225286
0.238704
0.256204
0.275589
0.29366
0.31056
0.327
0.343896
0.362281
0.386986
0.413839
0.442259
0.471847
0.502536
0.534251
0.566884
0.600302
0.634399
0.669043
0.704127
0.739527
0.775147
0.810883
0.846664
0.882408
0.918065
0.953575
0.988909
1.02403
1.05892
1.09355
1.12793
1.16203
1.19587
1.22943
1.26271
1.29571
1.32843
1.36086
1.39301
1.42487
1.45643
1.48769
1.51863
1.54923
1.5795
1.60941
1.63894
1.66807
1.69679
1.72508
1.75291
1.78026
1.80712
1.83347
1.85928
1.88456
1.90928
1.9334
1.95688
1.97975
2.00198
2.02358
2.04456
2.06493
2.0847
2.10391
2.12257
2.14074
2.15844
2.17573
2.19262
2.20921
2.22549
2.24156
2.25742
2.27316
2.28876
2.30417
2.31936
2.33449
2.35086
2.36743
2.38274
2.40022
2.41539
2.43303
2.44826
2.46625
2.4817
2.49825
2.51308
2.52809
2.54355
2.55685
2.57012
2.58487
2.59708
2.61059
2.62333
2.63392
2.64521
2.65458
2.66008
2.6746
2.68032
2.6826
2.68655
2.68876
2.69129
2.68851
2.68363
2.67625
2.66631
2.65374
2.63849
2.62015
2.59869
2.57413
2.54649
2.51584
2.48228
2.44593
2.40705
2.36587
2.32261
2.27751
2.23084
2.1828
2.13359
2.0838
2.03355
1.98272
1.93226
1.8819
1.83175
1.78206
1.73305
1.6849
1.63772
1.59133
1.54532
1.50039
1.45685
1.41482
1.37402
1.33436
1.29606
1.25926
1.22393
1.18993
1.15728
1.12603
1.09612
1.06751
1.04019
1.0141
0.989205
0.965431
0.942727
0.920965
0.900244
0.879948
0.861471
0.840848
0.826256
0.785863
0.0496437
0.0971545
0.126333
0.148306
0.167035
0.183964
0.199829
0.215145
0.230366
0.245935
0.262216
0.279434
0.297809
0.317642
0.339371
0.363237
0.388404
0.414213
0.440613
0.467906
0.496578
0.527236
0.560445
0.595604
0.632331
0.670399
0.709664
0.749977
0.791211
0.833251
0.875983
0.919287
0.96305
1.00716
1.0515
1.09599
1.14054
1.18509
1.22957
1.27394
1.31816
1.3622
1.40604
1.44965
1.49303
1.53615
1.57902
1.62163
1.66397
1.70605
1.74784
1.78937
1.8306
1.87155
1.91219
1.95253
1.99254
2.03221
2.07153
2.11047
2.14901
2.18713
2.2248
2.262
2.29869
2.33485
2.37045
2.40545
2.43983
2.47355
2.50659
2.53891
2.57048
2.6013
2.63134
2.66058
2.68901
2.71664
2.74345
2.76947
2.79469
2.81914
2.84283
2.8658
2.88807
2.90967
2.93064
2.95101
2.97082
2.99011
3.0089
3.02721
3.04505
3.06255
3.07988
3.09686
3.11355
3.1303
3.14625
3.16281
3.17836
3.19459
3.20963
3.225
3.23936
3.25423
3.2687
3.28283
3.29641
3.31007
3.32309
3.33592
3.34808
3.35945
3.37041
3.38005
3.38853
3.3975
3.40334
3.40585
3.40769
3.40819
3.40675
3.40201
3.39441
3.38373
3.36981
3.35247
3.33156
3.30689
3.27841
3.24608
3.20997
3.17014
3.12673
3.07994
3.03
2.97717
2.92176
2.86401
2.80423
2.74268
2.67966
2.61575
2.5516
2.48739
2.42341
2.35968
2.29637
2.23369
2.17191
2.11122
2.05176
1.99356
1.93661
1.88113
1.82728
1.77516
1.72451
1.675
1.62712
1.58106
1.53676
1.49397
1.45282
1.41338
1.37556
1.33934
1.30469
1.27158
1.23993
1.2097
1.18083
1.15321
1.12689
1.10154
1.07793
1.054
1.0362
1.00382
0.0745601
0.132183
0.166572
0.192496
0.214621
0.234747
0.253838
0.272545
0.291391
0.310809
0.331148
0.352685
0.375634
0.400164
0.426414
0.454409
0.483945
0.514828
0.547027
0.580669
0.615976
0.653159
0.692253
0.733083
0.775462
0.819221
0.864206
0.910287
0.957358
1.0053
1.054
1.10334
1.15321
1.20349
1.25408
1.3049
1.35587
1.40692
1.45799
1.50904
1.56002
1.6109
1.66164
1.71223
1.76265
1.81287
1.8629
1.91271
1.9623
2.01166
2.06079
2.10968
2.15831
2.20668
2.25478
2.3026
2.35011
2.39731
2.44417
2.49067
2.53678
2.58247
2.62772
2.67248
2.71672
2.76041
2.8035
2.84595
2.88772
2.92877
2.96905
3.00852
3.04714
3.08488
3.1217
3.15756
3.19245
3.22633
3.25918
3.291
3.32178
3.35151
3.38019
3.40784
3.43447
3.4601
3.48474
3.50842
3.53117
3.55303
3.57402
3.59418
3.61353
3.63216
3.65014
3.6675
3.6843
3.70058
3.71624
3.73163
3.74638
3.76091
3.77474
3.78833
3.80134
3.81427
3.82675
3.83884
3.85041
3.86169
3.87253
3.88291
3.89263
3.90164
3.90991
3.91712
3.92321
3.92821
3.93055
3.93066
3.92977
3.92691
3.92164
3.91339
3.90203
3.88733
3.86906
3.84701
3.82098
3.79083
3.75647
3.71787
3.67506
3.62813
3.57723
3.52255
3.46436
3.40293
3.33855
3.27152
3.20222
3.13104
3.05848
2.98508
2.9114
2.83774
2.76434
2.69134
2.61894
2.54738
2.4769
2.40769
2.33992
2.27369
2.20908
2.14621
2.08517
2.02605
1.96878
1.91325
1.85959
1.80789
1.75812
1.70977
1.66321
1.61854
1.57563
1.53443
1.49498
1.45722
1.4211
1.38656
1.35355
1.32202
1.29196
1.26325
1.23632
1.21019
1.18931
1.1599
0.100516
0.166978
0.206968
0.237098
0.262729
0.285986
0.308014
0.329568
0.351221
0.37344
0.396613
0.421047
0.446968
0.474524
0.503809
0.534847
0.567605
0.602036
0.638137
0.675951
0.715546
0.756953
0.800142
0.845019
0.891468
0.93936
0.988572
1.03899
1.09049
1.14296
1.19629
1.25035
1.30504
1.36026
1.41592
1.47192
1.52821
1.58471
1.64135
1.6981
1.75489
1.81169
1.86846
1.92518
1.98182
2.03835
2.09476
2.15104
2.20717
2.26314
2.31893
2.37455
2.42997
2.48518
2.54018
2.59494
2.64945
2.70369
2.75764
2.81126
2.86453
2.91741
2.96987
3.02187
3.07335
3.12427
3.17459
3.22425
3.27318
3.32135
3.36868
3.41512
3.46061
3.5051
3.54853
3.59086
3.63202
3.67197
3.71068
3.74811
3.78424
3.81903
3.85248
3.88457
3.91531
3.94468
3.97271
3.9994
4.02478
4.04887
4.07173
4.09337
4.11384
4.13321
4.15154
4.16888
4.18531
4.20084
4.21552
4.22946
4.24261
4.25509
4.26682
4.27793
4.28841
4.29842
4.30781
4.31661
4.32478
4.33248
4.33968
4.34635
4.3522
4.35715
4.36124
4.36447
4.36598
4.36593
4.36433
4.36105
4.35606
4.34895
4.33933
4.32682
4.31114
4.29204
4.26924
4.2425
4.21162
4.17644
4.13683
4.09276
4.04423
3.99134
3.93421
3.87305
3.80811
3.73966
3.66804
3.59363
3.5169
3.43832
3.35841
3.27769
3.19666
3.11567
3.03498
2.95482
2.87539
2.79696
2.71975
2.64397
2.5698
2.49735
2.42675
2.3581
2.29147
2.22692
2.16444
2.10398
2.04558
1.98929
1.93509
1.88279
1.83246
1.78413
1.73757
1.69274
1.64978
1.60857
1.56909
1.5313
1.49517
1.46065
1.42775
1.39646
1.36704
1.33911
1.31561
1.2855
0.126069
0.200567
0.246046
0.280364
0.309437
0.335679
0.360385
0.3844
0.408356
0.432758
0.458026
0.484497
0.512428
0.542003
0.573339
0.6065
0.641511
0.678377
0.717102
0.757693
0.800154
0.844467
0.890584
0.938428
0.987904
1.03891
1.09133
1.14506
1.19998
1.256
1.31298
1.37085
1.42948
1.48879
1.54869
1.6091
1.66995
1.73116
1.79267
1.85443
1.91638
1.97847
2.04066
2.10293
2.16523
2.22754
2.28984
2.3521
2.41432
2.47646
2.53852
2.60049
2.66235
2.72408
2.78568
2.84712
2.90839
2.96945
3.03029
3.09087
3.15116
3.21112
3.2707
3.32986
3.38855
3.44669
3.50424
3.56113
3.61728
3.67263
3.72709
3.7806
3.83307
3.88443
3.9346
3.98351
4.03108
4.07725
4.12194
4.16512
4.20671
4.24668
4.285
4.32162
4.35654
4.38972
4.42118
4.45091
4.47893
4.50527
4.52995
4.55301
4.5745
4.59447
4.613
4.63015
4.64596
4.6605
4.67382
4.686
4.69708
4.7071
4.71608
4.7241
4.73124
4.73759
4.74307
4.74765
4.75138
4.75446
4.7569
4.7588
4.75969
4.75923
4.75756
4.75515
4.75138
4.74627
4.73965
4.73138
4.72129
4.70906
4.69438
4.67692
4.65636
4.63242
4.60482
4.57329
4.5376
4.49756
4.45304
4.40397
4.35034
4.2922
4.22968
4.16297
4.09231
4.01802
3.94048
3.86016
3.77753
3.6931
3.60738
3.52087
3.43404
3.34726
3.26083
3.17499
3.09
3.00611
2.92355
2.84254
2.76326
2.68585
2.61043
2.53711
2.46596
2.39702
2.33031
2.26581
2.20353
2.14347
2.08561
2.02987
1.97626
1.92478
1.87531
1.8278
1.78226
1.73844
1.69638
1.65608
1.6175
1.58062
1.54548
1.51211
1.4807
1.45119
1.42546
1.39503
0.150424
0.231938
0.282527
0.320819
0.353164
0.382207
0.409368
0.43557
0.461492
0.487676
0.514572
0.54255
0.571907
0.602866
0.635589
0.67018
0.706702
0.745185
0.785644
0.828073
0.872457
0.918761
0.966931
1.01689
1.06857
1.12186
1.17667
1.23289
1.29044
1.34919
1.40907
1.46997
1.5318
1.59447
1.6579
1.72201
1.78672
1.85197
1.91769
1.98382
2.05031
2.1171
2.18414
2.2514
2.31884
2.38643
2.45413
2.52193
2.5898
2.65772
2.72568
2.79366
2.86164
2.9296
2.99754
3.06543
3.13324
3.20095
3.26854
3.33596
3.40318
3.47016
3.53683
3.60315
3.66906
3.73448
3.79934
3.86356
3.92706
3.98974
4.05151
4.11228
4.17194
4.2304
4.28756
4.34331
4.39755
4.45021
4.50117
4.55037
4.59772
4.64316
4.68661
4.72804
4.7674
4.80465
4.83978
4.87277
4.90363
4.93237
4.95903
4.98363
5.00622
5.02685
5.04559
5.0625
5.07763
5.09107
5.10286
5.11309
5.1218
5.12906
5.13488
5.13935
5.1426
5.14482
5.1458
5.14546
5.14385
5.14146
5.13816
5.13392
5.12856
5.12198
5.1143
5.10554
5.09552
5.08418
5.07139
5.057
5.04083
5.02262
5.00209
4.97893
4.95286
4.92357
4.89077
4.85418
4.81355
4.76867
4.71938
4.66558
4.60722
4.54434
4.47704
4.40551
4.33003
4.25094
4.16866
4.08364
3.99638
3.90737
3.81712
3.72611
3.63477
3.54348
3.45256
3.36229
3.27294
3.18477
3.09801
3.01288
2.92955
2.84819
2.76892
2.69186
2.61706
2.54459
2.47445
2.40664
2.34117
2.27801
2.21716
2.15855
2.10217
2.04801
1.99601
1.94612
1.8983
1.85241
1.80841
1.7662
1.72571
1.68698
1.65006
1.615
1.58196
1.55104
1.52342
1.49249
0.172911
0.260327
0.315469
0.357374
0.392727
0.424355
0.45377
0.481954
0.509623
0.537348
0.565604
0.594789
0.625231
0.657192
0.690871
0.726411
0.763907
0.803414
0.844957
0.888536
0.934133
0.981711
1.03122
1.08258
1.13573
1.19059
1.24706
1.30505
1.36448
1.42526
1.4873
1.55051
1.61481
1.68012
1.74636
1.81346
1.88135
1.94995
2.0192
2.08904
2.15941
2.23026
2.30154
2.3732
2.44521
2.51752
2.5901
2.66294
2.73599
2.80924
2.88268
2.95627
3.03001
3.10388
3.17785
3.25191
3.32602
3.40017
3.47433
3.54844
3.62247
3.69637
3.77008
3.84354
3.91668
3.98941
4.06164
4.1333
4.20426
4.27443
4.3437
4.41194
4.47903
4.54485
4.60927
4.67216
4.73341
4.79288
4.85046
4.90604
4.95952
5.01078
5.05975
5.10635
5.15052
5.19219
5.23134
5.26793
5.30195
5.33341
5.36232
5.38871
5.41262
5.43409
5.45319
5.46998
5.48453
5.4969
5.50717
5.51539
5.52163
5.52605
5.52851
5.52914
5.52807
5.52554
5.52142
5.51573
5.5086
5.50017
5.49047
5.47953
5.46731
5.4538
5.43905
5.42307
5.40582
5.38724
5.36724
5.3457
5.32247
5.29735
5.2701
5.24045
5.20813
5.17285
5.13432
5.09225
5.0464
4.99651
4.94242
4.88397
4.82112
4.75387
4.68232
4.60668
4.52723
4.4443
4.35831
4.2697
4.17894
4.08652
3.9929
3.89855
3.80387
3.70925
3.61502
3.52146
3.42887
3.33751
3.2476
3.15935
3.07296
2.98859
2.90636
2.8264
2.74877
2.67352
2.60068
2.53024
2.46221
2.39658
2.33332
2.27238
2.21374
2.15737
2.10325
2.05134
2.00157
1.95385
1.90812
1.86432
1.82238
1.78224
1.74392
1.7075
1.67313
1.64094
1.6117
1.58015
0.192993
0.285186
0.344224
0.389293
0.42733
0.461293
0.492763
0.522761
0.552027
0.581151
0.610621
0.640854
0.6722
0.704946
0.739322
0.775498
0.813598
0.8537
0.895845
0.940047
0.986294
1.03455
1.08478
1.13692
1.19091
1.24667
1.30413
1.36321
1.42383
1.48593
1.54942
1.61422
1.68027
1.74749
1.81582
1.88518
1.9555
2.02673
2.09879
2.17164
2.2452
2.31943
2.39427
2.46968
2.54562
2.62204
2.69892
2.77622
2.85392
2.93199
3.01041
3.08916
3.16823
3.24759
3.32722
3.40711
3.48722
3.56753
3.64799
3.72858
3.80924
3.88992
3.97055
4.05106
4.13137
4.2114
4.29103
4.37017
4.44869
4.52647
4.60337
4.67926
4.75399
4.82742
4.89937
4.96971
5.03827
5.10491
5.16946
5.2318
5.29178
5.34928
5.40417
5.45636
5.50575
5.55227
5.59584
5.63643
5.674
5.70854
5.74007
5.76858
5.79412
5.81673
5.83645
5.85336
5.86752
5.879
5.88787
5.89422
5.89799
5.89937
5.8984
5.8952
5.88985
5.88248
5.87309
5.86178
5.84862
5.83374
5.81721
5.79909
5.77942
5.75825
5.73565
5.71166
5.68629
5.65954
5.63136
5.60169
5.57043
5.53744
5.50253
5.4655
5.42609
5.38406
5.33913
5.29104
5.23951
5.1843
5.12521
5.0621
4.99489
4.92359
4.8483
4.7692
4.68655
4.60066
4.51192
4.42073
4.32754
4.23278
4.13691
4.04035
3.94348
3.84667
3.75024
3.65451
3.55978
3.46628
3.37425
3.28389
3.19539
3.10891
3.0246
2.94258
2.86291
2.78564
2.7108
2.63839
2.56844
2.50091
2.4358
2.37305
2.31265
2.25454
2.19873
2.14517
2.09381
2.04456
1.99738
1.9522
1.90899
1.86769
1.82832
1.79083
1.75537
1.72209
1.69146
1.65925
0.21029
0.306177
0.368419
0.416161
0.456515
0.492537
0.525851
0.557501
0.588242
0.618666
0.649269
0.680471
0.71263
0.746049
0.780972
0.817591
0.856049
0.896444
0.938836
0.983253
1.0297
1.07815
1.12858
1.18094
1.23518
1.29124
1.34906
1.40858
1.46974
1.53246
1.5967
1.66239
1.72947
1.79787
1.86754
1.93841
2.01043
2.08353
2.15766
2.23276
2.30878
2.38566
2.46335
2.54181
2.621
2.70087
2.7814
2.86255
2.94428
3.02659
3.10945
3.19283
3.27673
3.36111
3.44597
3.53127
3.61699
3.7031
3.78956
3.87633
3.96336
4.05058
4.13794
4.22534
4.31271
4.39993
4.48691
4.57351
4.6596
4.74504
4.82967
4.91334
4.99587
5.07707
5.15678
5.23481
5.31097
5.38507
5.45693
5.52637
5.59323
5.65734
5.71856
5.77674
5.83177
5.88355
5.93197
5.97697
6.0185
6.05655
6.09107
6.1221
6.14963
6.17371
6.19438
6.21171
6.22576
6.23661
6.24434
6.24885
6.25038
6.249
6.24479
6.23781
6.22818
6.21597
6.20129
6.18419
6.1648
6.14322
6.11955
6.09389
6.06633
6.03696
6.00588
5.97318
5.93893
5.90316
5.86591
5.82718
5.78693
5.74509
5.70156
5.65617
5.60877
5.55912
5.50702
5.45222
5.39445
5.33349
5.26914
5.20127
5.1298
5.05472
4.9761
4.8941
4.80893
4.72088
4.63026
4.53745
4.44284
4.34682
4.24979
4.15213
4.0542
3.95633
3.85883
3.76204
3.66625
3.57169
3.47858
3.38711
3.29746
3.2098
3.12429
3.04105
2.96013
2.8816
2.80548
2.73179
2.66054
2.59172
2.52532
2.4613
2.39962
2.34026
2.28319
2.22839
2.17579
2.12535
2.07701
2.03073
1.98645
1.94418
1.9039
1.86562
1.82928
1.79507
1.76328
1.73045
0.22457
0.323155
0.387915
0.437823
0.480106
0.517886
0.552814
0.585943
0.618029
0.649664
0.681333
0.713453
0.746379
0.780411
0.8158
0.852745
0.891403
0.931884
0.974264
1.01859
1.06487
1.11312
1.16331
1.21541
1.26939
1.3252
1.38282
1.44217
1.50324
1.56595
1.63028
1.69617
1.76357
1.83243
1.90271
1.97436
2.04732
2.12155
2.19699
2.2736
2.35133
2.43012
2.50993
2.59072
2.67245
2.75508
2.83858
2.92291
3.00806
3.09398
3.18067
3.26811
3.35627
3.44515
3.53473
3.62497
3.71584
3.80733
3.89939
3.99198
4.08503
4.1785
4.2723
4.36635
4.46056
4.55481
4.64898
4.74293
4.83651
4.92957
5.02193
5.1134
5.20379
5.29288
5.38048
5.46637
5.55032
5.63211
5.71153
5.78837
5.86241
5.93346
6.00135
6.06589
6.12693
6.18434
6.238
6.28781
6.3337
6.37562
6.41354
6.44745
6.47734
6.50326
6.52523
6.54331
6.55758
6.56809
6.57485
6.57795
6.57755
6.57367
6.5664
6.55582
6.54203
6.52512
6.50519
6.48232
6.45664
6.42825
6.39728
6.36384
6.32807
6.29009
6.25005
6.20807
6.16427
6.11876
6.07164
6.02298
5.97282
5.92119
5.86806
5.81335
5.75699
5.69882
5.63868
5.57643
5.5118
5.4446
5.37468
5.3019
5.22618
5.1475
5.06589
4.98146
4.89439
4.80489
4.71323
4.61971
4.52466
4.4284
4.33129
4.23365
4.13579
4.03801
3.94055
3.84382
3.74809
3.65357
3.56044
3.46889
3.37908
3.29118
3.20538
3.12178
3.04046
2.96145
2.88479
2.81051
2.73862
2.66913
2.60202
2.53727
2.47484
2.41469
2.35682
2.30119
2.24776
2.19648
2.1473
2.1002
2.05513
2.01209
1.97108
1.93211
1.89511
1.86013
1.82739
1.79403
0.235736
0.33613
0.402759
0.454334
0.498148
0.537363
0.573647
0.608056
0.641338
0.674072
0.706731
0.739714
0.773364
0.807968
0.843771
0.880971
0.919727
0.960156
1.00235
1.04635
1.09221
1.13994
1.18953
1.24098
1.29427
1.34938
1.40628
1.46495
1.52536
1.58748
1.65129
1.71675
1.78383
1.85248
1.92269
1.99441
2.06761
2.14224
2.21828
2.29567
2.37438
2.45437
2.53559
2.618
2.70158
2.78628
2.87207
2.95892
3.04682
3.13572
3.22562
3.3165
3.40835
3.50116
3.5949
3.68955
3.78508
3.88146
3.97865
4.0766
4.17527
4.27458
4.37446
4.47482
4.57555
4.67653
4.77764
4.87872
4.97961
5.08014
5.18009
5.27928
5.37748
5.47445
5.56996
5.66375
5.75558
5.84519
5.93231
6.01672
6.09815
6.17637
6.25117
6.32234
6.38968
6.45304
6.51225
6.5672
6.61777
6.66392
6.70557
6.74269
6.77529
6.80337
6.82696
6.84612
6.8609
6.87136
6.87754
6.87955
6.87749
6.87138
6.86131
6.84736
6.82962
6.80818
6.78314
6.75459
6.72265
6.68745
6.64911
6.60777
6.5636
6.51674
6.46738
6.41567
6.3618
6.30594
6.24826
6.18889
6.128
6.06568
6.00201
5.93703
5.87078
5.80315
5.73407
5.66339
5.59073
5.51634
5.44011
5.36194
5.28174
5.19946
5.1151
5.02871
4.94037
4.85024
4.75849
4.66533
4.57101
4.47576
4.37986
4.28356
4.18712
4.09078
3.99466
3.89923
3.80473
3.71136
3.61931
3.52872
3.43977
3.35259
3.26744
3.18439
3.10351
3.02485
2.94842
2.87426
2.80243
2.73291
2.66571
2.60079
2.53814
2.47771
2.4195
2.36349
2.30963
2.25788
2.20822
2.16061
2.11502
2.07147
2.02994
1.99045
1.95292
1.91734
1.88384
1.85011
0.243793
0.345221
0.413117
0.465883
0.510831
0.551149
0.588513
0.623974
0.658269
0.69196
0.7255
0.759267
0.793581
0.828711
0.864886
0.902292
0.941082
0.981375
1.02326
1.06681
1.11206
1.15905
1.2078
1.2583
1.31057
1.36461
1.42041
1.47795
1.53724
1.59829
1.66107
1.7256
1.79179
1.85965
1.92917
2.00034
2.07314
2.14754
2.22352
2.30105
2.38009
2.46061
2.54258
2.62596
2.71073
2.79685
2.8843
2.97305
3.06307
3.15433
3.24679
3.3405
3.43544
3.53159
3.62893
3.72743
3.82706
3.92778
4.02956
4.13237
4.23615
4.34082
4.4463
4.55251
4.65933
4.76665
4.87431
4.98217
5.09003
5.19772
5.30501
5.41168
5.51748
5.62216
5.72544
5.82705
5.92669
6.02407
6.11891
6.21091
6.29979
6.38528
6.46712
6.54505
6.61886
6.68835
6.75332
6.81362
6.86912
6.91972
6.96536
7.00596
7.04152
7.07203
7.09752
7.11802
7.13358
7.14427
7.15016
7.15132
7.1479
7.13984
7.12723
7.11016
7.08869
7.06291
7.03292
6.99883
6.96073
6.91876
6.87304
6.82376
6.77106
6.71514
6.65619
6.59443
6.53006
6.46334
6.3945
6.32376
6.25137
6.17758
6.10251
6.0263
5.94856
5.86988
5.79041
5.71019
5.6298
5.54872
5.4667
5.38365
5.29948
5.21412
5.1275
5.03963
4.95054
4.86029
4.76898
4.67674
4.58373
4.49012
4.3961
4.30185
4.20757
4.11343
4.01942
3.92652
3.83457
3.74369
3.65399
3.56562
3.4787
3.39336
3.30984
3.22828
3.14874
3.07125
2.99585
2.92257
2.8515
2.78264
2.71598
2.6515
2.58917
2.52899
2.47093
2.41499
2.36113
2.30933
2.25954
2.21176
2.16597
2.12216
2.08035
2.04053
2.00263
1.96662
1.93259
1.89864
0.248826
0.350629
0.419246
0.472756
0.518457
0.559544
0.597697
0.633959
0.669055
0.703526
0.737802
0.77224
0.807135
0.842731
0.879233
0.91681
0.955601
0.995717
1.03725
1.08027
1.12482
1.17096
1.21872
1.26811
1.31917
1.37191
1.42637
1.48249
1.54032
1.5999
1.66127
1.72448
1.78941
1.8561
1.92453
1.99472
2.06667
2.14035
2.21576
2.29288
2.37169
2.45218
2.5343
2.61805
2.7034
2.79033
2.87881
2.96883
3.06035
3.15336
3.24781
3.3438
3.44128
3.54021
3.64057
3.74233
3.84546
3.9499
4.05568
4.16275
4.27104
4.38047
4.49097
4.60245
4.7148
4.82788
4.94156
5.05565
5.16999
5.28436
5.39853
5.51225
5.62527
5.73729
5.84801
5.95713
6.06432
6.16926
6.27161
6.37106
6.46727
6.55993
6.64874
6.73342
6.8137
6.88934
6.96012
7.02585
7.08636
7.14155
7.19128
7.23551
7.27418
7.30728
7.33483
7.35684
7.37337
7.38448
7.39024
7.39076
7.38624
7.37645
7.36152
7.34152
7.3165
7.28656
7.25177
7.21224
7.16806
7.11937
7.0663
7.00902
6.94771
6.88258
6.81385
6.74175
6.66655
6.58854
6.50807
6.4254
6.34074
6.25409
6.16613
6.07723
5.98844
5.89958
5.81065
5.72173
5.63335
5.54465
5.45598
5.36739
5.2788
5.19012
5.10126
5.01217
4.92278
4.83308
4.74304
4.65271
4.56212
4.47133
4.38044
4.28954
4.19875
4.10816
4.01767
3.92802
3.83924
3.75144
3.66473
3.57923
3.49504
3.41224
3.33141
3.25241
3.17523
3.0999
3.02645
2.95487
2.88531
2.81781
2.75235
2.68892
2.62751
2.5681
2.51071
2.45533
2.40192
2.35047
2.30095
2.25336
2.20768
2.16392
2.12208
2.08215
2.04405
2.00783
1.97348
1.93951
0.251032
0.352602
0.421454
0.475301
0.521398
0.562932
0.601584
0.63839
0.674059
0.709107
0.743926
0.778893
0.814271
0.85027
0.887065
0.924798
0.963592
1.00354
1.04474
1.08724
1.13112
1.17643
1.22322
1.27147
1.32124
1.37261
1.42565
1.48032
1.53666
1.5947
1.65446
1.71594
1.77919
1.84426
1.91119
1.97998
2.05066
2.12324
2.1977
2.27404
2.35227
2.43236
2.5143
2.59807
2.68366
2.77105
2.86021
2.95113
3.04379
3.13816
3.23423
3.33195
3.43136
3.53243
3.63516
3.73952
3.84549
3.95303
4.06216
4.1728
4.28489
4.39835
4.51313
4.62913
4.74624
4.86434
4.98327
5.10287
5.22295
5.34328
5.46363
5.58374
5.70332
5.82207
5.93965
6.05574
6.16997
6.28198
6.39141
6.4979
6.60107
6.70058
6.79608
6.88725
6.97379
7.0554
7.13184
7.20288
7.26832
7.32801
7.38181
7.42963
7.4714
7.5071
7.53672
7.56028
7.57781
7.58938
7.59506
7.59505
7.58955
7.57815
7.56101
7.53818
7.50972
7.47568
7.43616
7.39123
7.34101
7.28559
7.22513
7.15979
7.08978
7.01532
6.93663
6.854
6.76768
6.67767
6.58456
6.48888
6.39124
6.29263
6.19303
6.09279
5.99286
5.89257
5.79273
5.69367
5.59573
5.49891
5.40336
5.3091
5.21612
5.12429
5.03351
4.94364
4.85455
4.76609
4.67816
4.59065
4.50348
4.4166
4.32997
4.24358
4.15747
4.07168
3.98621
3.90133
3.81717
3.73385
3.65147
3.57011
3.48987
3.41074
3.33323
3.25732
3.18304
3.11043
3.03949
2.97026
2.90303
2.83768
2.77417
2.71251
2.65267
2.59461
2.53842
2.48409
2.4316
2.38094
2.33209
2.28505
2.23983
2.19642
2.15482
2.11502
2.07698
2.04078
2.00635
1.97258
0.250671
0.351666
0.420291
0.474049
0.520145
0.561758
0.60057
0.637616
0.673597
0.709017
0.74426
0.779695
0.815522
0.851919
0.889029
0.926971
0.965843
1.00573
1.04669
1.08881
1.13214
1.17674
1.22271
1.27
1.31868
1.36878
1.42033
1.47338
1.52803
1.58437
1.64246
1.70234
1.76403
1.8276
1.89308
1.96051
2.02992
2.10133
2.17475
2.2502
2.32768
2.4072
2.48875
2.57231
2.65786
2.74541
2.83492
2.92638
3.01977
3.11508
3.21227
3.31134
3.41228
3.51508
3.61974
3.72623
3.8345
3.94452
4.05626
4.16969
4.28477
4.40143
4.51964
4.63928
4.76025
4.88243
5.00569
5.12986
5.25475
5.38013
5.50577
5.63139
5.75669
5.88134
6.00501
6.12731
6.24788
6.36631
6.4822
6.59514
6.70474
6.8106
6.91234
7.00958
7.10199
7.18924
7.27103
7.3471
7.41721
7.48118
7.53884
7.59005
7.63475
7.67286
7.70439
7.72933
7.74771
7.75957
7.76499
7.76438
7.75779
7.74468
7.72522
7.69943
7.66737
7.62907
7.58462
7.53409
7.47756
7.41517
7.34704
7.27332
7.19409
7.10957
7.02007
6.92594
6.8276
6.72593
6.62102
6.51347
6.4042
6.29273
6.18009
6.06692
5.95393
5.8415
5.73025
5.62067
5.5132
5.4081
5.30558
5.20573
5.10854
5.01391
4.92169
4.83167
4.74362
4.65728
4.57242
4.4888
4.40619
4.3244
4.24327
4.16267
4.08252
4.00279
3.92345
3.84461
3.76636
3.68876
3.61191
3.53589
3.46077
3.38664
3.31372
3.2421
3.17184
3.10297
3.03552
2.96947
2.9051
2.84238
2.7813
2.72187
2.66408
2.60792
2.55352
2.50081
2.44977
2.40039
2.35265
2.30655
2.26212
2.21938
2.1783
2.13891
2.10123
2.06532
2.03106
1.9977
0.248331
0.348152
0.416085
0.469372
0.51516
0.55661
0.5954
0.632559
0.668775
0.704527
0.740167
0.775977
0.812185
0.848959
0.886426
0.924686
0.963818
1.00389
1.04494
1.08703
1.13021
1.17452
1.22
1.2667
1.31469
1.36403
1.41478
1.46699
1.52073
1.57611
1.63317
1.692
1.75265
1.81519
1.87969
1.94618
2.01471
2.08529
2.15794
2.23274
2.30971
2.38884
2.47011
2.55351
2.63905
2.72669
2.81643
2.90823
3.00208
3.09796
3.19585
3.29571
3.39755
3.50134
3.60707
3.71472
3.82425
3.93565
4.04888
4.16392
4.28074
4.39928
4.51947
4.64125
4.76453
4.88921
5.01517
5.14225
5.27027
5.39903
5.52828
5.65775
5.78713
5.9161
6.04428
6.17129
6.29672
6.42014
6.54113
6.65923
6.77401
6.88504
6.9919
7.09417
7.19147
7.28343
7.36972
7.45002
7.52408
7.59165
7.65253
7.70657
7.75365
7.7937
7.82667
7.85257
7.87139
7.88318
7.88795
7.88658
7.87868
7.86367
7.84169
7.81277
7.77692
7.73419
7.68459
7.62821
7.5651
7.49538
7.41917
7.3367
7.2483
7.15422
7.05469
6.95016
6.84129
6.72785
6.61065
6.49037
6.36767
6.24307
6.11734
5.99127
5.8657
5.74133
5.61892
5.49914
5.38256
5.26962
5.16063
5.05576
4.95503
4.85833
4.76548
4.67619
4.59013
4.50694
4.42621
4.34758
4.27067
4.19513
4.12067
4.04704
3.97403
3.90154
3.82947
3.75781
3.6866
3.61587
3.54568
3.47608
3.40714
3.33894
3.27163
3.20529
3.13999
3.07579
3.01273
2.95085
2.89028
2.83106
2.77321
2.71675
2.66169