/*--------------------------------*- C++ -*----------------------------------*\
  =========                 |
  \\      /  F ield         | OpenFOAM: The Open Source CFD Toolbox
   \\    /   O peration     | Website:  https://openfoam.org
    \\  /    A nd           | Version:  11
     \\/     M anipulation  |
\*---------------------------------------------------------------------------*/
FoamFile
{
    format      ascii;
    class       volScalarField;
    location    "100";
    object      nut;
}
// * * * * * * * * * * * * * * * * * * * * * * * * * * * * * * * * * * * * * //

dimensions      [0 2 -1 0 0 0 0];

internalField   nonuniform List<scalar> 
12225
(
4.14924e-05
3.93417e-05
3.74815e-05
3.54351e-05
3.37808e-05
3.24256e-05
3.15037e-05
3.09147e-05
3.09201e-05
3.10966e-05
3.15799e-05
3.2104e-05
3.31744e-05
3.38524e-05
3.50785e-05
3.60652e-05
3.66878e-05
3.97247e-05
0.000332259
0.000215134
0.000179291
0.000157641
0.000146234
0.000138164
0.000132678
0.000131734
0.000129404
0.000130171
0.000128933
0.000129562
0.000128546
0.000128692
0.000127949
0.000127768
0.000127495
0.000126529
0.000668776
0.000450541
0.000355823
0.000309746
0.000275337
0.000251005
0.000231732
0.000217178
0.000202608
0.000192049
0.000182523
0.000175034
0.000169285
0.000163356
0.000160196
0.000155023
0.000153626
0.000148955
0.000801645
0.00069157
0.000572672
0.000499945
0.000449456
0.000411863
0.000380814
0.000355866
0.000333989
0.000314578
0.000298292
0.000281312
0.000270191
0.000255574
0.000247851
0.000235414
0.000229737
0.000219049
0.000839616
0.000810134
0.000740802
0.000676305
0.000624005
0.000581266
0.000545907
0.000514407
0.000489506
0.00046421
0.000445773
0.000423728
0.000409685
0.000390309
0.000379323
0.000362238
0.000353744
0.000337712
0.000850345
0.000843264
0.000819563
0.000786476
0.000750836
0.000715795
0.000685784
0.000656007
0.000632524
0.000607332
0.000588884
0.00056696
0.000552002
0.000532637
0.000520228
0.000502847
0.000492638
0.000475817
0.000851581
0.000851014
0.000843301
0.000833456
0.000817146
0.000796902
0.000777882
0.000756654
0.000738871
0.000719017
0.000703427
0.000685404
0.000671881
0.000655544
0.000643851
0.00062879
0.000619005
0.000603814
0.000851584
0.000851811
0.000850043
0.000847451
0.000841408
0.000833746
0.000824806
0.000813396
0.000802789
0.000790396
0.000779636
0.000767396
0.000757253
0.000745514
0.00073622
0.000724983
0.00071689
0.000705058
0.000851675
0.000851527
0.000851019
0.000850338
0.000848877
0.000846165
0.000843025
0.000838285
0.000833387
0.000827323
0.000821164
0.00081469
0.000808323
0.000801345
0.000795088
0.000788029
0.000782168
0.000774393
0.000851756
0.000851384
0.000851045
0.000850631
0.000850248
0.000849364
0.000848404
0.000846772
0.000844946
0.000842512
0.000839897
0.000836757
0.000833738
0.000830067
0.000826861
0.000822765
0.000819728
0.000815009
0.000851785
0.000851357
0.000851013
0.000850613
0.00085033
0.000849903
0.000849525
0.000848925
0.000848298
0.000847384
0.000846453
0.000845156
0.000843962
0.000842311
0.000840943
0.000838958
0.000837553
0.000835241
0.000851789
0.000851359
0.000850996
0.000850605
0.000850292
0.000849938
0.000849645
0.000849278
0.000848952
0.000848499
0.000848091
0.000847496
0.000846983
0.000846223
0.000845616
0.000844687
0.000844019
0.000842925
0.000851786
0.000851363
0.000850986
0.000850604
0.000850269
0.000849926
0.000849629
0.000849312
0.00084904
0.000848725
0.000848458
0.00084812
0.000847836
0.000847455
0.000847145
0.000846711
0.000846372
0.000845884
0.000851783
0.000851364
0.000850978
0.000850602
0.000850256
0.000849917
0.000849607
0.000849299
0.000849021
0.000848739
0.000848486
0.000848221
0.000847985
0.000847731
0.000847504
0.000847253
0.00084703
0.00084678
0.000851781
0.000851364
0.000850973
0.000850598
0.000850247
0.000849909
0.000849592
0.000849287
0.000849
0.000848723
0.000848463
0.000848211
0.000847975
0.000847745
0.000847528
0.000847317
0.000847118
0.000846923
0.00085178
0.000851363
0.000850969
0.000850594
0.000850239
0.000849901
0.000849581
0.000849275
0.000848985
0.000848708
0.000848445
0.000848193
0.000847953
0.000847724
0.000847506
0.000847297
0.000847099
0.000846909
0.000851779
0.000851363
0.000850967
0.000850591
0.000850234
0.000849895
0.000849573
0.000849266
0.000848974
0.000848696
0.000848431
0.000848178
0.000847936
0.000847706
0.000847486
0.000847276
0.000847075
0.000846883
0.000851779
0.000851362
0.000850965
0.000850589
0.000850231
0.000849891
0.000849568
0.00084926
0.000848967
0.000848687
0.000848421
0.000848167
0.000847924
0.000847692
0.000847471
0.000847259
0.000847057
0.000846864
0.000851779
0.000851362
0.000850965
0.000850588
0.00085023
0.00084989
0.000849566
0.000849257
0.000848963
0.000848683
0.000848416
0.000848161
0.000847918
0.000847685
0.000847463
0.00084725
0.000847047
0.000846852
0.000851779
0.000851362
0.000850966
0.000850589
0.000850232
0.000849892
0.000849568
0.00084926
0.000848967
0.000848687
0.00084842
0.000848165
0.000847921
0.000847688
0.000847465
0.000847252
0.000847048
0.000846853
0.000851779
0.000851363
0.000850967
0.000850592
0.000850235
0.000849897
0.000849574
0.000849268
0.000848974
0.000848696
0.000848426
0.000848172
0.000847923
0.000847688
0.000847456
0.000847238
0.00084702
0.000846815
0.000851778
0.000851366
0.000850968
0.000850599
0.00085024
0.000849908
0.000849581
0.000849275
0.000848966
0.000848673
0.000848367
0.000848075
0.00084776
0.000847461
0.000847129
0.000846819
0.000846466
0.000846146
0.000851773
0.000851376
0.000850971
0.000850615
0.000850241
0.00084989
0.000849479
0.000849055
0.000848531
0.000847981
0.000847305
0.000846609
0.000845773
0.000844947
0.000843965
0.000843042
0.000841934
0.000840959
0.000851768
0.000851415
0.000850964
0.000850548
0.000849861
0.000848967
0.000847612
0.000845978
0.000843909
0.000841642
0.000838963
0.000836225
0.000833131
0.000830132
0.000826787
0.000823709
0.000820221
0.000817222
0.000851859
0.000851379
0.000850196
0.000848243
0.000844471
0.000839356
0.000832769
0.000825665
0.000817972
0.000810024
0.000801637
0.000793651
0.000785364
0.000777746
0.000769793
0.00076276
0.000755196
0.000748882
0.000852108
0.000847667
0.000839903
0.000827144
0.000808715
0.000789647
0.000769988
0.000751422
0.000733327
0.000716917
0.00070097
0.000686819
0.000672884
0.000660732
0.000648457
0.000638032
0.000627065
0.000618149
0.000843241
0.000822505
0.000775192
0.000726454
0.000684908
0.000649852
0.000618482
0.00059203
0.000568414
0.000548336
0.000529737
0.000514034
0.000498821
0.000486086
0.000473297
0.000462809
0.000451754
0.000442947
0.000795683
0.00066824
0.000570633
0.000509904
0.000465618
0.000431186
0.000404167
0.000382492
0.000364231
0.00034909
0.000335986
0.000325096
0.000314573
0.000306289
0.00029804
0.000291448
0.000284389
0.000279043
0.000501314
0.000348357
0.000292675
0.000259181
0.000236329
0.000221179
0.00021163
0.000203861
0.000198576
0.000195083
0.000192235
0.000190377
0.000188598
0.000187453
0.000186185
0.00018549
0.000184577
0.000184166
7.27386e-05
7.02253e-05
6.79544e-05
6.56135e-05
6.3383e-05
6.1276e-05
5.94945e-05
5.79549e-05
5.67108e-05
5.57026e-05
5.49767e-05
5.44165e-05
5.41073e-05
5.38779e-05
5.3891e-05
5.39266e-05
5.40875e-05
5.4315e-05
3.75075e-06
4.92109e-05
7.3596e-05
9.4988e-05
0.000114176
0.000131608
0.00014777
0.000162943
0.000177881
0.000194155
0.000215215
0.000233773
0.000245269
0.000255035
0.000276843
0.000360122
0.000422292
0.000432393
0.000409216
0.000367198
0.000298399
4.81419e-05
5.10493e-05
5.31784e-05
5.55072e-05
5.77378e-05
5.99362e-05
6.21073e-05
6.4253e-05
6.63663e-05
6.84447e-05
7.04799e-05
7.24703e-05
7.44099e-05
7.62991e-05
7.81347e-05
7.99184e-05
8.16486e-05
8.33282e-05
8.49565e-05
8.65372e-05
8.807e-05
8.95588e-05
9.1004e-05
9.24098e-05
9.37766e-05
9.51072e-05
9.64028e-05
9.76653e-05
9.8896e-05
0.000100096
0.000101267
0.00010241
0.000103525
0.000104613
0.000105675
0.00010671
0.00010772
0.000108705
0.000109664
0.000110596
0.000111504
0.000112386
0.000113243
0.000114072
0.000114877
0.000115655
0.000116409
0.000117136
0.000117838
0.000118512
0.00011916
0.000119778
0.000120372
0.000120936
0.000121476
0.000121989
0.000122479
0.000122944
0.000123389
0.000123812
0.000124218
0.000124605
0.000124979
0.000125337
0.000125686
0.000126022
0.000126349
0.000126659
0.000126942
0.000127168
0.000127271
0.000127113
0.000125966
0.000127745
0.00013039
0.000127389
0.000130875
0.000128146
0.000131529
0.000128927
0.000132529
0.000132571
0.000132749
0.000133142
0.00013048
0.000133052
0.000132302
0.000130447
0.000133545
0.000131593
0.000132649
0.000134572
0.0001321
0.000133075
0.000134613
0.000132461
0.000134188
0.000133334
0.000132753
0.000134067
0.000133561
0.000133562
0.000133214
0.000132898
0.000132497
0.000132041
0.000131531
0.000130957
0.000130309
0.000129586
0.00012879
0.000127913
0.000126962
0.000125972
0.000124874
0.000123701
0.000122451
0.000121126
0.000119737
0.000118303
0.000116758
0.000115112
0.000113666
0.00011161
0.000109022
0.000107642
0.000106482
0.000105329
0.000104152
0.000102961
0.000101754
0.00010054
9.93622e-05
9.81567e-05
9.687e-05
9.56479e-05
9.44757e-05
9.32807e-05
9.20765e-05
9.08731e-05
8.96893e-05
8.85361e-05
8.74059e-05
8.6296e-05
8.52131e-05
8.41581e-05
8.31301e-05
8.21303e-05
8.1159e-05
8.02155e-05
7.9298e-05
7.84072e-05
7.75287e-05
7.6692e-05
7.57914e-05
7.50651e-05
7.38915e-05
7.32468e-05
7.09138e-05
8.50146e-06
7.40254e-05
0.000149685
0.000208804
0.000252739
0.000285205
0.000308886
0.000326463
0.000340251
0.000351785
0.000361462
0.00036875
0.000373624
0.000377608
0.000383057
0.000392002
0.0003994
0.000400307
0.000392742
0.000375684
0.000349268
0.000315194
0.00032004
0.000331079
0.000343733
0.000357185
0.000371313
0.00038619
0.000401787
0.000418023
0.00043479
0.00045199
0.000469505
0.000487227
0.000505042
0.000522866
0.000540607
0.000558198
0.00057557
0.000592678
0.000609475
0.000625933
0.000642016
0.000657708
0.000673048
0.000688042
0.000702686
0.000716995
0.00073097
0.000744625
0.000757965
0.000771005
0.000783747
0.000796204
0.000808376
0.000820273
0.000831891
0.000843235
0.0008543
0.000865088
0.000875591
0.000885806
0.000895724
0.00090534
0.000914645
0.000923631
0.000932294
0.000940625
0.000948625
0.000956297
0.000963623
0.00097055
0.000977078
0.000983192
0.000988898
0.000994185
0.000999062
0.00100352
0.00100759
0.00101127
0.00101459
0.00101755
0.0010202
0.00102257
0.00102471
0.00102663
0.00102843
0.00103014
0.00103186
0.00103369
0.00103582
0.0010384
0.00104166
0.00104589
0.00105182
0.00105454
0.00105526
0.00106519
0.0010624
0.00107457
0.00107068
0.00108446
0.00108243
0.00109296
0.00108985
0.00109456
0.00109912
0.0011062
0.00110421
0.00111276
0.00111713
0.00112483
0.00112996
0.00113397
0.00114514
0.00114372
0.00114494
0.00115972
0.00116408
0.00116154
0.00116877
0.00117369
0.00118084
0.00118503
0.00118881
0.00119192
0.00119435
0.00119607
0.00119713
0.00119712
0.00119614
0.00119413
0.00119109
0.00118699
0.00118198
0.00117593
0.00116893
0.00116101
0.00115222
0.00114259
0.00113227
0.0011212
0.00110912
0.00109719
0.00108433
0.00106651
0.001047
0.00102673
0.00100612
0.000985381
0.00096466
0.000944082
0.000923642
0.000903446
0.000883606
0.000864027
0.000844929
0.000826636
0.000808807
0.000791259
0.00077415
0.000757562
0.000741483
0.000725788
0.000710515
0.000695715
0.000681356
0.000667431
0.00065394
0.000640873
0.000628191
0.000615911
0.000603891
0.000592314
0.000580674
0.000569596
0.000558041
0.000545802
0.000526526
0.00047455
1.53151e-05
0.000107009
0.000209576
0.000293284
0.000358245
0.000407398
0.000443617
0.000469394
0.000487035
0.000498971
0.000507758
0.000514852
0.00052139
0.000528582
0.000537627
0.000549228
0.000562544
0.000575991
0.000588189
0.000598599
0.000608093
0.000619811
0.000639241
0.000663143
0.000689492
0.00071754
0.000747693
0.000779683
0.000812802
0.00084676
0.000881357
0.000916428
0.000951793
0.00098726
0.00102263
0.0010578
0.00109266
0.00112712
0.00116109
0.00119451
0.00122734
0.00125954
0.0012911
0.001322
0.00135226
0.00138189
0.0014109
0.00143929
0.00146708
0.00149429
0.00152093
0.00154702
0.00157257
0.00159759
0.00162209
0.00164609
0.00166957
0.00169256
0.00171504
0.00173701
0.00175847
0.00177941
0.00179982
0.00181968
0.00183899
0.00185773
0.00187588
0.00189343
0.00191037
0.00192667
0.00194232
0.00195729
0.00197157
0.00198515
0.00199801
0.00201015
0.00202157
0.00203227
0.00204227
0.00205158
0.00206023
0.00206825
0.00207568
0.00208256
0.00208897
0.00209496
0.00210064
0.00210607
0.00211141
0.00211677
0.00212231
0.00212814
0.00213428
0.00214061
0.00214669
0.00215124
0.0021562
0.00216361
0.00216713
0.00217596
0.00217933
0.00218916
0.00219265
0.00220071
0.00220317
0.00221047
0.00221754
0.0022256
0.0022304
0.00223996
0.00224835
0.00225768
0.00226585
0.00227449
0.0022851
0.00229044
0.00229805
0.00231035
0.00231888
0.00232168
0.00232916
0.00233596
0.00234279
0.00234789
0.00235176
0.00235428
0.00235535
0.00235484
0.00235268
0.00234864
0.00234271
0.00233482
0.00232495
0.00231309
0.00229935
0.0022837
0.00226622
0.00224699
0.00222611
0.00220368
0.00217988
0.00215475
0.00212825
0.00210101
0.00207267
0.00204068
0.00200639
0.00197083
0.00193461
0.00189811
0.00186158
0.00182521
0.00178909
0.00175346
0.00171863
0.00168449
0.00165144
0.00162008
0.00158946
0.001559
0.00152944
0.0015009
0.00147332
0.00144623
0.00141986
0.00139433
0.00136953
0.00134542
0.00132204
0.00129935
0.00127726
0.00125577
0.00123469
0.00121417
0.00119359
0.00117364
0.00115273
0.00113177
0.0011057
0.00103944
2.29862e-05
0.000138346
0.000263492
0.000367115
0.000449083
0.000512127
0.000559624
0.000594745
0.000620455
0.000639528
0.000654391
0.000667065
0.000679314
0.000692599
0.000708071
0.000726404
0.0007476
0.000771128
0.000796321
0.000822816
0.000850902
0.000881683
0.00091607
0.000953641
0.000993863
0.00103645
0.00108059
0.00112583
0.00117216
0.00121934
0.00126714
0.00131549
0.00136427
0.00141338
0.00146238
0.00151106
0.00155929
0.00160694
0.00165394
0.00170022
0.00174574
0.00179046
0.00183435
0.00187742
0.00191967
0.00196109
0.0020017
0.00204151
0.00208053
0.00211879
0.0021563
0.00219307
0.00222913
0.00226448
0.00229915
0.00233313
0.00236643
0.00239906
0.00243102
0.0024623
0.00249291
0.00252282
0.00255203
0.00258052
0.00260829
0.0026353
0.00266154
0.00268699
0.00271163
0.00273543
0.00275838
0.00278044
0.00280161
0.00282187
0.0028412
0.00285959
0.00287705
0.00289358
0.00290918
0.00292387
0.00293768
0.00295064
0.0029628
0.0029742
0.00298491
0.002995
0.00300456
0.00301368
0.00302247
0.00303103
0.00303945
0.00304777
0.00305592
0.00306377
0.0030711
0.00307781
0.00308465
0.00309189
0.00309833
0.00310597
0.00311243
0.00312033
0.00312657
0.00313369
0.00313947
0.00314688
0.00315439
0.00316216
0.00316929
0.00317802
0.00318667
0.00319545
0.00320373
0.00321208
0.00322102
0.0032296
0.00323916
0.00324897
0.00325535
0.00325957
0.00326586
0.00327141
0.00327615
0.00327941
0.00328111
0.00328109
0.00327936
0.00327563
0.00326974
0.00326151
0.00325086
0.00323773
0.00322206
0.00320386
0.00318318
0.00316006
0.00313457
0.00310681
0.00307692
0.00304502
0.0030113
0.0029759
0.00293892
0.00290068
0.00286102
0.00281886
0.00277469
0.00272919
0.00268292
0.00263628
0.00258955
0.00254298
0.00249671
0.00245098
0.00240607
0.00236203
0.00231904
0.00227748
0.00223712
0.00219824
0.00216102
0.00212531
0.00209106
0.00205701
0.00202395
0.0019921
0.00196116
0.00193105
0.00190188
0.00187357
0.00184598
0.00181906
0.00179263
0.00176677
0.001741
0.00171568
0.00168967
0.00166286
0.00163778
0.0015699
3.09351e-05
0.000166014
0.00031221
0.000434139
0.000532008
0.000608501
0.000667554
0.000712804
0.000747549
0.000774775
0.000797142
0.000816957
0.000836164
0.000856334
0.000878641
0.000903832
0.000932204
0.00096369
0.000998038
0.00103503
0.00107466
0.00111709
0.00116244
0.00121053
0.0012611
0.00131381
0.00136826
0.00142412
0.00148118
0.00153922
0.00159802
0.00165724
0.00171662
0.0017759
0.00183489
0.00189347
0.00195154
0.00200898
0.0020657
0.00212164
0.00217673
0.00223095
0.00228426
0.00233665
0.00238812
0.00243866
0.00248828
0.00253699
0.0025848
0.00263174
0.00267781
0.00272304
0.00276744
0.00281102
0.00285381
0.0028958
0.002937
0.00297743
0.00301707
0.00305594
0.00309401
0.0031313
0.00316777
0.00320342
0.00323823
0.00327217
0.00330523
0.00333737
0.00336858
0.00339883
0.00342808
0.00345632
0.00348352
0.00350966
0.00353472
0.00355868
0.00358154
0.00360329
0.00362394
0.00364349
0.00366195
0.00367936
0.00369575
0.00371116
0.00372564
0.00373926
0.00375209
0.0037642
0.00377567
0.00378658
0.00379699
0.00380693
0.00381634
0.00382516
0.00383332
0.00384091
0.00384818
0.00385523
0.0038619
0.00386862
0.00387496
0.00388141
0.0038873
0.00389317
0.00389873
0.00390479
0.003911
0.00391726
0.00392341
0.00393006
0.00393704
0.00394406
0.00395037
0.00395741
0.00396553
0.00397297
0.00397914
0.00398461
0.00398914
0.00399294
0.0039968
0.0039999
0.00400196
0.00400259
0.00400157
0.00399869
0.00399392
0.00398697
0.00397766
0.00396582
0.00395132
0.00393409
0.00391405
0.00389119
0.00386554
0.00383715
0.00380608
0.00377246
0.00373641
0.00369811
0.00365774
0.00361549
0.00357151
0.00352599
0.0034789
0.00342989
0.00337919
0.00332727
0.00327458
0.00322148
0.00316827
0.00311519
0.00306245
0.00301026
0.00295887
0.00290841
0.00285901
0.00281092
0.0027641
0.00271872
0.00267494
0.00263308
0.00259348
0.00255533
0.00251873
0.00248374
0.00244967
0.00241644
0.00238434
0.00235325
0.00232289
0.0022932
0.00226403
0.00223539
0.00220698
0.00217891
0.00215053
0.00212116
0.00209526
0.0020294
3.87403e-05
0.000191084
0.000356043
0.00049491
0.000607436
0.000696955
0.000767439
0.000822934
0.000867006
0.000902817
0.000933156
0.00096044
0.000986702
0.00101358
0.00104229
0.00107369
0.00110824
0.0011461
0.00118724
0.00123157
0.00127896
0.00132933
0.00138256
0.00143844
0.0014967
0.00155705
0.00161916
0.00168272
0.00174746
0.0018131
0.00187938
0.00194603
0.0020128
0.00207947
0.00214586
0.00221183
0.00227725
0.00234201
0.00240603
0.00246924
0.00253158
0.002593
0.00265348
0.002713
0.00277154
0.00282911
0.00288572
0.00294136
0.00299605
0.00304981
0.00310264
0.00315458
0.00320563
0.0032558
0.00330512
0.00335359
0.00340123
0.00344803
0.003494
0.00353914
0.00358343
0.00362688
0.00366946
0.00371117
0.00375197
0.00379185
0.00383078
0.00386873
0.00390567
0.00394156
0.00397638
0.00401009
0.00404266
0.00407406
0.00410426
0.00413323
0.00416096
0.00418743
0.00421262
0.00423655
0.0042592
0.00428059
0.00430074
0.00431968
0.00433744
0.00435407
0.00436962
0.00438415
0.00439771
0.00441036
0.00442216
0.00443311
0.00444323
0.00445247
0.00446084
0.00446843
0.00447533
0.00448163
0.00448737
0.00449268
0.00449752
0.00450202
0.00450602
0.00450969
0.00451309
0.00451648
0.00451983
0.00452312
0.00452608
0.00452895
0.00453274
0.00453765
0.00454131
0.00454455
0.00454718
0.00455012
0.00455237
0.00455428
0.00455556
0.00455632
0.00455668
0.00455631
0.00455494
0.00455229
0.00454814
0.00454228
0.00453452
0.00452464
0.00451244
0.00449773
0.00448036
0.00446024
0.00443726
0.0044114
0.00438266
0.00435106
0.00431669
0.00427963
0.00424004
0.00419807
0.00415392
0.00410776
0.00405977
0.00401011
0.00395887
0.00390602
0.00385173
0.00379633
0.00374017
0.00368357
0.00362682
0.00357015
0.00351379
0.00345796
0.00340286
0.00334866
0.0032955
0.00324353
0.00319282
0.0031435
0.00309568
0.00304956
0.00300537
0.00296336
0.00292363
0.00288608
0.00285034
0.00281612
0.00278332
0.00275135
0.00271999
0.00268929
0.00265905
0.0026293
0.00259983
0.00257068
0.00254147
0.00251152
0.00248456
0.00242606
4.61671e-05
0.000213267
0.000394682
0.00054898
0.000675055
0.000776894
0.000858407
0.000923913
0.000977171
0.00102147
0.00105966
0.00109423
0.00112725
0.0011604
0.00119498
0.0012319
0.00127174
0.00131483
0.00136125
0.00141098
0.00146391
0.00151988
0.00157869
0.0016401
0.00170385
0.00176962
0.00183711
0.00190602
0.00197607
0.00204697
0.00211846
0.0021903
0.00226226
0.00233413
0.00240574
0.00247695
0.00254762
0.00261766
0.00268698
0.0027555
0.00282316
0.00288992
0.00295576
0.00302063
0.00308455
0.00314749
0.00320946
0.00327046
0.00333051
0.00338962
0.00344781
0.00350508
0.00356146
0.00361697
0.00367161
0.0037254
0.00377835
0.00383046
0.00388173
0.00393216
0.00398175
0.00403049
0.00407836
0.00412533
0.0041714
0.00421652
0.00426067
0.00430382
0.00434592
0.00438693
0.00442682
0.00446554
0.00450305
0.00453931
0.00457427
0.0046079
0.00464016
0.00467102
0.00470045
0.00472843
0.00475495
0.00478
0.00480358
0.0048257
0.00484637
0.00486563
0.0048835
0.00490001
0.00491522
0.00492915
0.00494186
0.00495335
0.00496365
0.00497277
0.00498073
0.00498758
0.00499341
0.00499827
0.00500225
0.00500541
0.00500781
0.00500954
0.00501053
0.00501093
0.00501091
0.00501052
0.00500983
0.00500915
0.00500821
0.00500689
0.00500593
0.00500491
0.00500337
0.00500146
0.00499932
0.00499703
0.00499441
0.00499152
0.00498829
0.00498471
0.00498075
0.00497621
0.00497088
0.00496454
0.00495698
0.00494797
0.00493731
0.00492477
0.00491013
0.00489319
0.00487377
0.00485175
0.004827
0.00479945
0.00476909
0.00473593
0.00470001
0.00466142
0.00462028
0.00457674
0.00453097
0.00448315
0.00443345
0.00438204
0.00432905
0.00427459
0.00421884
0.00416204
0.00410448
0.00404645
0.00398821
0.00392999
0.00387202
0.00381452
0.0037577
0.00370171
0.0036467
0.00359279
0.00354008
0.00348868
0.0034387
0.00339028
0.00334358
0.00329878
0.00325625
0.00321661
0.00317952
0.00314456
0.0031114
0.00307955
0.00304871
0.0030185
0.00298856
0.00295901
0.00292973
0.00290072
0.00287177
0.00284241
0.00281501
0.00276425
5.30174e-05
0.00023238
0.000427886
0.000595941
0.000734406
0.000847765
0.00093977
0.00101491
0.00107705
0.00112957
0.00117536
0.00121691
0.00125633
0.00129532
0.00133522
0.00137702
0.00142139
0.00146874
0.00151926
0.00157298
0.00162982
0.00168964
0.00175223
0.00181733
0.00188468
0.00195398
0.00202494
0.00209727
0.00217069
0.00224494
0.00231976
0.00239492
0.00247022
0.00254547
0.0026205
0.00269517
0.00276935
0.00284295
0.00291588
0.00298807
0.00305945
0.00312998
0.00319963
0.00326838
0.00333621
0.0034031
0.00346907
0.00353412
0.00359825
0.00366147
0.00372381
0.00378528
0.0038459
0.00390567
0.00396463
0.00402277
0.00408011
0.00413665
0.0041924
0.00424735
0.0043015
0.00435484
0.00440734
0.00445899
0.00450975
0.00455961
0.00460851
0.00465642
0.00470328
0.00474906
0.0047937
0.00483714
0.00487933
0.00492021
0.00495972
0.0049978
0.00503442
0.0050695
0.00510301
0.0051349
0.00516514
0.0051937
0.00522055
0.00524569
0.00526911
0.00529081
0.0053108
0.0053291
0.00534573
0.00536072
0.00537409
0.00538587
0.00539609
0.00540476
0.00541193
0.00541763
0.00542194
0.00542492
0.00542664
0.00542715
0.0054265
0.00542494
0.00542216
0.00541844
0.0054143
0.0054099
0.0054046
0.00539878
0.0053924
0.00538563
0.00537869
0.00537148
0.0053639
0.00535601
0.0053479
0.00533964
0.00533123
0.00532271
0.00531407
0.00530531
0.00529636
0.00528712
0.00527741
0.00526707
0.00525589
0.00524367
0.00523019
0.00521521
0.00519851
0.00517985
0.00515904
0.0051359
0.00511029
0.00508212
0.0050513
0.00501785
0.00498178
0.00494315
0.00490204
0.00485857
0.00481289
0.00476515
0.00471552
0.00466417
0.00461125
0.00455691
0.00450133
0.00444473
0.00438735
0.00432944
0.00427126
0.00421301
0.00415493
0.00409724
0.00404015
0.00398383
0.0039284
0.00387399
0.00382068
0.00376859
0.00371783
0.00366854
0.00362081
0.00357481
0.00353076
0.00348943
0.00345142
0.00341607
0.00338284
0.00335127
0.00332099
0.00329165
0.00326295
0.00323457
0.00320635
0.00317829
0.0031503
0.00312216
0.00309509
0.00305109
5.91333e-05
0.000248352
0.000455593
0.000635631
0.00078524
0.000909187
0.00101102
0.00109527
0.0011659
0.00122628
0.00127933
0.00132754
0.00137298
0.00141739
0.00146213
0.00150823
0.00155642
0.0016072
0.00166082
0.00171738
0.00177685
0.00183911
0.00190398
0.00197122
0.00204059
0.0021118
0.0021846
0.0022587
0.00233384
0.00240979
0.00248631
0.00256318
0.00264022
0.00271724
0.00279411
0.00287068
0.00294683
0.00302248
0.00309753
0.00317192
0.00324558
0.00331848
0.00339057
0.00346184
0.00353227
0.00360185
0.00367058
0.00373847
0.00380551
0.00387173
0.00393714
0.00400176
0.00406561
0.0041287
0.00419106
0.00425269
0.0043136
0.00437381
0.00443331
0.0044921
0.00455018
0.00460753
0.00466413
0.00471996
0.00477498
0.00482916
0.00488246
0.00493481
0.00498618
0.00503649
0.00508568
0.00513368
0.00518043
0.00522583
0.00526983
0.00531234
0.00535329
0.0053926
0.0054302
0.00546603
0.00550003
0.00553215
0.00556233
0.00559054
0.00561675
0.00564093
0.00566309
0.0056832
0.00570128
0.00571734
0.00573139
0.00574345
0.00575356
0.00576173
0.005768
0.00577243
0.00577507
0.005776
0.00577526
0.00577294
0.00576884
0.00576322
0.00575657
0.00574901
0.00574065
0.00573099
0.00572033
0.0057088
0.00569651
0.00568359
0.00567018
0.00565634
0.00564209
0.00562753
0.00561277
0.00559791
0.00558303
0.0055682
0.00555349
0.00553891
0.00552444
0.00551003
0.00549557
0.00548093
0.00546594
0.00545042
0.00543414
0.00541689
0.00539838
0.00537839
0.00535668
0.00533305
0.00530732
0.00527934
0.00524901
0.00521631
0.00518121
0.00514373
0.00510392
0.00506185
0.00501762
0.00497137
0.00492322
0.00487334
0.0048219
0.00476905
0.00471496
0.00465982
0.00460386
0.0045473
0.00449036
0.00443326
0.00437623
0.00431949
0.00426326
0.00420772
0.00415298
0.00409914
0.0040463
0.00399458
0.00394411
0.00389499
0.00384734
0.00380128
0.00375698
0.00371499
0.00367662
0.00364128
0.0036083
0.00357717
0.00354753
0.00351903
0.00349143
0.00346445
0.00343791
0.00341135
0.00338478
0.00335816
0.00333199
0.00329359
6.44059e-05
0.000261212
0.00047788
0.000668055
0.000827449
0.000960907
0.00107175
0.00116449
0.00124305
0.00131083
0.00137071
0.00142515
0.00147622
0.00152561
0.00157471
0.00162456
0.00167596
0.00172943
0.0017853
0.00184373
0.00190473
0.00196825
0.00203413
0.00210219
0.0021722
0.00224391
0.0023171
0.00239151
0.00246691
0.00254309
0.00261982
0.00269693
0.00277423
0.00285158
0.00292882
0.00300585
0.00308254
0.00315882
0.00323459
0.0033098
0.00338439
0.00345831
0.00353154
0.00360404
0.00367582
0.00374685
0.00381715
0.00388671
0.00395554
0.00402366
0.00409109
0.00415785
0.00422397
0.00428945
0.00435433
0.00441862
0.00448233
0.00454546
0.00460803
0.00467003
0.00473145
0.00479229
0.00485251
0.00491209
0.004971
0.00502918
0.0050866
0.00514318
0.00519887
0.00525358
0.00530725
0.00535978
0.00541109
0.00546107
0.00550963
0.00555668
0.00560211
0.00564582
0.00568772
0.00572771
0.00576571
0.00580162
0.00583539
0.00586694
0.00589621
0.00592316
0.00594775
0.00596995
0.00598975
0.00600714
0.00602213
0.00603472
0.00604493
0.0060528
0.00605836
0.00606165
0.00606274
0.0060617
0.00605862
0.00605319
0.00604578
0.00603679
0.00602644
0.00601463
0.0060012
0.00598629
0.00597005
0.00595262
0.00593414
0.00591475
0.00589461
0.00587384
0.00585256
0.00583091
0.00580905
0.00578712
0.00576527
0.00574364
0.00572233
0.00570142
0.00568097
0.00566097
0.0056414
0.00562216
0.00560314
0.00558416
0.00556504
0.00554556
0.00552541
0.00550433
0.00548208
0.00545842
0.00543313
0.00540601
0.00537691
0.00534578
0.00531257
0.00527723
0.00523975
0.00520015
0.00515849
0.00511485
0.00506935
0.0050221
0.00497327
0.00492303
0.0048715
0.00481886
0.00476533
0.00471111
0.0046564
0.0046014
0.00454633
0.00449144
0.00443697
0.00438311
0.00432994
0.00427754
0.00422602
0.0041755
0.00412613
0.00407803
0.00403131
0.00398606
0.00394245
0.00390096
0.00386295
0.00382809
0.00379567
0.00376518
0.00373627
0.00370863
0.00368203
0.00365627
0.00363118
0.00360647
0.00358155
0.00355657
0.00353165
0.0034979
6.87667e-05
0.000271057
0.00049491
0.0006933
0.000861007
0.00100265
0.00112166
0.00122209
0.0013079
0.00138244
0.00144858
0.00150871
0.00156488
0.00161875
0.00167168
0.00172474
0.00177872
0.00183419
0.00189154
0.00195097
0.00201257
0.0020763
0.00214209
0.00220978
0.00227919
0.00235012
0.00242238
0.00249574
0.00257003
0.00264504
0.0027206
0.00279654
0.0028727
0.00294896
0.00302518
0.00310126
0.0031771
0.00325261
0.00332774
0.0034024
0.00347656
0.00355018
0.00362322
0.00369568
0.00376753
0.00383878
0.00390943
0.00397948
0.00404896
0.00411788
0.00418625
0.00425413
0.00432153
0.00438847
0.004455
0.00452111
0.00458683
0.00465217
0.00471713
0.00478172
0.00484593
0.00490975
0.00497315
0.00503611
0.00509858
0.00516051
0.00522184
0.00528251
0.00534244
0.00540154
0.00545971
0.00551685
0.00557286
0.0056276
0.00568097
0.00573283
0.00578305
0.00583152
0.00587809
0.00592266
0.00596509
0.00600527
0.00604309
0.00607847
0.0061113
0.00614152
0.00616905
0.00619385
0.00621588
0.00623511
0.00625153
0.00626513
0.00627592
0.00628392
0.00628918
0.00629173
0.00629163
0.00628898
0.00628366
0.00627577
0.00626562
0.0062535
0.00623936
0.00622315
0.00620499
0.00618498
0.00616326
0.00614
0.00611534
0.00608947
0.00606256
0.00603479
0.00600635
0.00597742
0.00594821
0.00591894
0.0058898
0.00586099
0.0058327
0.00580507
0.00577824
0.00575228
0.00572723
0.00570308
0.00567976
0.00565711
0.00563499
0.00561327
0.00559152
0.00556949
0.00554691
0.00552355
0.00549913
0.00547339
0.00544607
0.00541715
0.00538655
0.00535414
0.00531984
0.0052836
0.00524543
0.00520536
0.00516344
0.00511978
0.00507452
0.00502782
0.00497975
0.00493049
0.00488026
0.00482922
0.00477755
0.00472544
0.00467312
0.00462081
0.00456887
0.00451745
0.00446659
0.00441634
0.00436682
0.00431818
0.00427059
0.0042242
0.0041791
0.00413537
0.00409321
0.0040531
0.00401629
0.00398241
0.00395085
0.00392119
0.0038931
0.00386634
0.00384071
0.00381605
0.00379221
0.003769
0.00374582
0.00372245
0.00369893
0.00366907
7.21892e-05
0.00027806
0.000507004
0.000711758
0.000886373
0.00103484
0.00116069
0.00126774
0.00135985
0.00144031
0.00151191
0.00157702
0.00163759
0.00169527
0.00175138
0.00180697
0.00186285
0.00191962
0.00197767
0.00203727
0.00209854
0.00216151
0.00222615
0.00229235
0.00235998
0.00242889
0.00249892
0.0025699
0.00264171
0.00271418
0.00278718
0.00286058
0.00293421
0.00300796
0.00308175
0.00315547
0.00322905
0.00330241
0.00337548
0.00344822
0.00352057
0.00359251
0.00366402
0.00373509
0.00380572
0.00387591
0.00394567
0.00401501
0.00408395
0.00415251
0.00422073
0.00428865
0.00435633
0.00442379
0.00449106
0.00455816
0.00462512
0.00469194
0.00475863
0.00482522
0.00489169
0.00495803
0.00502421
0.00509021
0.00515598
0.00522146
0.0052866
0.0053513
0.00541549
0.00547905
0.00554188
0.00560385
0.00566483
0.00572467
0.00578323
0.00584034
0.00589586
0.00594962
0.00600145
0.0060512
0.00609871
0.00614382
0.0061864
0.00622631
0.00626343