/*--------------------------------*- C++ -*----------------------------------*\
  =========                 |
  \\      /  F ield         | OpenFOAM: The Open Source CFD Toolbox
   \\    /   O peration     | Website:  https://openfoam.org
    \\  /    A nd           | Version:  11
     \\/     M anipulation  |
\*---------------------------------------------------------------------------*/
FoamFile
{
    format      ascii;
    class       volScalarField;
    location    "100";
    object      p;
}
// * * * * * * * * * * * * * * * * * * * * * * * * * * * * * * * * * * * * * //

dimensions      [0 2 -2 0 0 0 0];

internalField   nonuniform List<scalar> 
12225
(
-2.18984
-4.37824
-5.47756
-5.79727
-5.97731
-6.14473
-6.27429
-6.3669
-6.44015
-6.50311
-6.55743
-6.60476
-6.64409
-6.67521
-6.6964
-6.69511
-6.68871
-6.53768
-5.35334
-6.1215
-6.28135
-6.18813
-6.17439
-6.24068
-6.31621
-6.37941
-6.43572
-6.48882
-6.53787
-6.58143
-6.61927
-6.64994
-6.67341
-6.67919
-6.68846
-6.64048
-5.75451
-5.73925
-5.86595
-5.94335
-6.03707
-6.15571
-6.26091
-6.34326
-6.41185
-6.47304
-6.52781
-6.57572
-6.6175
-6.65218
-6.68087
-6.69752
-6.72224
-6.73346
-5.63258
-5.57544
-5.81634
-5.97377
-6.07434
-6.17902
-6.27474
-6.35236
-6.41801
-6.47716
-6.53071
-6.57826
-6.62049
-6.65696
-6.6893
-6.7157
-6.75163
-6.79624
-5.62229
-5.64649
-5.8739
-6.01459
-6.09704
-6.1876
-6.27693
-6.35232
-6.41694
-6.47548
-6.52898
-6.57716
-6.62076
-6.65993
-6.69665
-6.73171
-6.77645
-6.83593
-5.68033
-5.72904
-5.90269
-6.02572
-6.10611
-6.19251
-6.27877
-6.35308
-6.41731
-6.47564
-6.5293
-6.57827
-6.6233
-6.66507
-6.7057
-6.74722
-6.79774
-6.86273
-5.74077
-5.78479
-5.91936
-6.03483
-6.11755
-6.20033
-6.28256
-6.35516
-6.41876
-6.47676
-6.5305
-6.58019
-6.62657
-6.67066
-6.71453
-6.7606
-6.81445
-6.88019
-5.79444
-5.83186
-5.94123
-6.04874
-6.13078
-6.2091
-6.28695
-6.35761
-6.42047
-6.47811
-6.53191
-6.58225
-6.62987
-6.67593
-6.72232
-6.77129
-6.82656
-6.89058
-5.84434
-5.87726
-5.96763
-6.06487
-6.14406
-6.21826
-6.29203
-6.36056
-6.42252
-6.47971
-6.53347
-6.58433
-6.63297
-6.68052
-6.72864
-6.77914
-6.83437
-6.89548
-5.8916
-5.92064
-5.99566
-6.08221
-6.15762
-6.22814
-6.29804
-6.36421
-6.42502
-6.48162
-6.53521
-6.58636
-6.6357
-6.68423
-6.73329
-6.78423
-6.83844
-6.89617
-5.93615
-5.96146
-6.02421
-6.1008
-6.17179
-6.23874
-6.30497
-6.3686
-6.42804
-6.4839
-6.53715
-6.58834
-6.63802
-6.687
-6.73632
-6.78688
-6.83944
-6.89377
-5.97444
-5.9966
-6.0504
-6.11875
-6.18527
-6.24893
-6.31196
-6.37321
-6.43123
-6.48624
-6.53899
-6.58997
-6.63963
-6.68858
-6.73761
-6.7873
-6.83805
-6.88941
-6.00985
-6.02939
-6.07588
-6.13687
-6.19889
-6.2593
-6.3193
-6.37819
-6.43471
-6.48874
-6.54082
-6.59138
-6.64074
-6.68937
-6.73774
-6.78625
-6.83506
-6.88367
-6.04704
-6.06407
-6.10383
-6.15756
-6.21455
-6.27131
-6.32805
-6.38429
-6.43899
-6.49178
-6.5429
-6.5927
-6.64142
-6.68931
-6.73664
-6.78354
-6.83008
-6.87577
-6.08478
-6.09945
-6.13327
-6.18018
-6.2319
-6.28471
-6.33803
-6.39137
-6.44394
-6.49516
-6.54501
-6.59363
-6.64125
-6.68794
-6.7338
-6.77874
-6.82275
-6.86549
-6.12113
-6.13369
-6.16255
-6.20345
-6.25001
-6.29879
-6.34865
-6.39901
-6.44915
-6.49851
-6.54674
-6.59383
-6.63984
-6.6849
-6.72887
-6.77164
-6.81301
-6.85287
-6.15321
-6.16407
-6.18905
-6.22508
-6.26711
-6.31211
-6.35875
-6.40622
-6.45385
-6.50107
-6.54745
-6.5927
-6.6368
-6.6798
-6.72163
-6.76204
-6.80085
-6.83793
-6.17665
-6.18633
-6.20872
-6.24139
-6.28012
-6.32217
-6.36621
-6.41128
-6.45664
-6.50178
-6.54623
-6.58956
-6.63163
-6.67245
-6.71203
-6.75011
-6.78652
-6.82112
-6.18451
-6.19375
-6.21518
-6.24661
-6.28406
-6.32483
-6.36755
-6.41125
-6.45519
-6.49881
-6.54168
-6.58332
-6.62359
-6.66246
-6.69998
-6.73594
-6.7702
-6.80267
-6.16923
-6.17912
-6.20198
-6.23534
-6.27472
-6.31688
-6.36049
-6.40469
-6.44886
-6.49233
-6.53477
-6.57571
-6.61515
-6.65295
-6.6893
-6.72391
-6.75681
-6.78791
-6.14294
-6.15386
-6.1794
-6.2167
-6.25981
-6.30481
-6.35048
-6.39637
-6.44166
-6.48582
-6.5284
-6.56934
-6.60849
-6.64599
-6.68168
-6.71564
-6.74765
-6.77808
-6.10813
-6.12007
-6.1497
-6.19356
-6.24216
-6.29058
-6.33893
-6.38724
-6.43443
-6.47968
-6.52285
-6.56402
-6.60326
-6.64061
-6.67601
-6.70948
-6.74102
-6.77092
-6.06787
-6.07989
-6.11462
-6.16815
-6.22403
-6.27639
-6.32773
-6.37869
-6.42781
-6.47428
-6.51823
-6.55988
-6.59941
-6.63675
-6.67203
-6.70518
-6.73647
-6.76606
-6.02437
-6.03547
-6.07751
-6.14216
-6.20467
-6.26177
-6.31782
-6.37214
-6.42293
-6.47024
-6.5148
-6.55691
-6.59661
-6.63397
-6.66903
-6.702
-6.73301
-6.76242
-5.97757
-5.9832
-6.04614
-6.12457
-6.1868
-6.24544
-6.30703
-6.36587
-6.41886
-6.46732
-6.51269
-6.55533
-6.59526
-6.6326
-6.66753
-6.70031
-6.73113
-6.76045
-5.93435
-5.89814
-6.00794
-6.11919
-6.18173
-6.23732
-6.29993
-6.36017
-6.41386
-6.46294
-6.50898
-6.55212
-6.59232
-6.62976
-6.66472
-6.6975
-6.72832
-6.75758
-5.94864
-5.7898
-5.91896
-6.07329
-6.16377
-6.23543
-6.3047
-6.36606
-6.41932
-6.46796
-6.51353
-6.55615
-6.5957
-6.63251
-6.66685
-6.69909
-6.72949
-6.75845
-6.07186
-5.89158
-5.90603
-5.97836
-6.06708
-6.16664
-6.25766
-6.33187
-6.39402
-6.44948
-6.50009
-6.54621
-6.58828
-6.62689
-6.66249
-6.69562
-6.72682
-6.75692
-5.77925
-6.37041
-6.45955
-6.33553
-6.28149
-6.30897
-6.35631
-6.4
-6.44199
-6.48447
-6.52625
-6.56592
-6.60318
-6.63804
-6.6705
-6.7008
-6.72932
-6.758
-2.78993
-4.55334
-5.55828
-5.85771
-6.00717
-6.15108
-6.26547
-6.3469
-6.41155
-6.4687
-6.5202
-6.56656
-6.60855
-6.64692
-6.68209
-6.71396
-6.74255
-6.76625
-8.11
-8.10803
-8.10619
-8.10811
-8.11187
-8.11649
-8.12202
-8.12808
-8.1341
-8.13965
-8.14496
-8.15083
-8.15751
-8.16413
-8.16986
-8.17604
-8.18584
-8.19948
-8.21671
-8.23576
-8.25119
-8.26409
-8.2832
-8.30803
-8.33495
-8.36435
-8.3963
-8.43066
-8.46733
-8.50601
-8.54646
-8.58825
-8.63104
-8.67438
-8.71788
-8.76108
-8.80363
-8.84513
-8.88526
-8.92373
-8.96031
-8.99478
-9.02698
-9.0568
-9.08409
-9.10882
-9.13089
-9.15032
-9.16702
-9.18104
-9.1923
-9.20092
-9.2068
-9.21006
-9.21062
-9.20863
-9.20401
-9.19692
-9.18722
-9.17517
-9.16064
-9.14387
-9.1247
-9.10347
-9.07998
-9.0546
-9.02711
-8.99793
-8.96683
-8.93424
-8.89995
-8.86438
-8.82727
-8.78908
-8.74957
-8.70925
-8.6678
-8.62564
-8.58248
-8.53883
-8.49427
-8.44919
-8.40309
-8.35641
-8.30849
-8.25974
-8.20945
-8.15765
-8.10337
-8.04614
-7.98611
-7.92275
-7.85548
-7.78352
-7.70627
-7.62301
-7.53319
-7.43574
-7.32973
-7.21407
-7.08769
-6.94925
-6.79731
-6.6304
-6.44674
-6.24491
-6.02337
-5.78093
-5.51639
-5.22873
-4.91662
-4.57927
-4.2157
-3.82552
-3.40803
-2.96308
-2.49063
-1.99121
-1.46545
-0.914633
-0.340125
0.256312
0.872699
1.5065
2.15488
2.81452
3.48198
4.15356
4.82555
5.49419
6.15582
6.80691
7.4441
8.06437
8.6649
9.2433
9.79746
10.3257
10.8267
11.2999
11.7446
12.161
12.5497
12.9114
13.2474
13.5587
13.8462
14.1102
14.3517
14.5718
14.7717
14.9529
15.1165
15.264
15.3965
15.5154
15.6217
15.7167
15.8012
15.8763
15.9428
16.0016
16.0534
16.0989
16.1388
16.1736
16.204
16.2305
16.2535
16.2738
16.2919
16.3084
16.3243
16.3407
16.3594
16.3833
16.4193
16.4745
16.5769
16.7151
-8.10858
-8.10735
-8.10608
-8.10799
-8.11131
-8.11473
-8.11818
-8.12168
-8.12488
-8.1276
-8.13008
-8.13301
-8.1364
-8.14005
-8.144
-8.1498
-8.15766
-8.16603
-8.17466
-8.18327
-8.19348
-8.21128
-8.23607
-8.26023
-8.2858
-8.31408
-8.34524
-8.37915
-8.41565
-8.45446
-8.49526
-8.53762
-8.58116
-8.62536
-8.66977
-8.71391
-8.75737
-8.79974
-8.84067
-8.87988
-8.91712
-8.95218
-8.98492
-9.01521
-9.04293
-9.06806
-9.0905
-9.11027
-9.12728
-9.14159
-9.15315
-9.16202
-9.16815
-9.17162
-9.17238
-9.17054
-9.16605
-9.15901
-9.14938
-9.1373
-9.12272
-9.10579
-9.08648
-9.06496
-9.0412
-9.01541
-8.98754
-8.95782
-8.9262
-8.89295
-8.85804
-8.82171
-8.78392
-8.74493
-8.70471
-8.66355
-8.62133
-8.57831
-8.53444
-8.48997
-8.44476
-8.39901
-8.35254
-8.30551
-8.25755
-8.20879
-8.15887
-8.10762
-8.05419
-7.99852
-7.94031
-7.87918
-7.81445
-7.74545
-7.67156
-7.5919
-7.50546
-7.41147
-7.30906
-7.19707
-7.07439
-6.93977
-6.79197
-6.62928
-6.45042
-6.25382
-6.03835
-5.8028
-5.54581
-5.26602
-4.96241
-4.63387
-4.27959
-3.89866
-3.49071
-3.05548
-2.59284
-2.10315
-1.58716
-1.0458
-0.480413
0.107379
0.715724
1.34224
1.98416
2.63832
3.30134
3.96959
4.63939
5.30697
5.96865
6.62083
7.26011
7.88333
8.48761
9.07041
9.62953
10.1632
10.6701
11.1492
11.6002
12.023
12.4178
12.7853
13.1263
13.442
13.7337
14.0022
14.2484
14.4733
14.6781
14.8641
15.0324
15.1845
15.3216
15.4448
15.5553
15.6542
15.7425
15.8212
15.8912
15.9532
16.008
16.0564
16.0989
16.1363
16.169
16.1977
16.223
16.2452
16.2652
16.2835
16.3011
16.3192
16.3396
16.3649
16.4003
16.451
16.5418
16.6554
-8.1018
-8.10256
-8.10308
-8.10562
-8.10866
-8.11102
-8.11263
-8.11364
-8.11411
-8.11416
-8.11414
-8.11447
-8.11532
-8.11671
-8.11902
-8.12324
-8.12986
-8.1382
-8.14778
-8.15823
-8.16987
-8.18462
-8.20376
-8.22579
-8.251
-8.27957
-8.31131
-8.34588
-8.38295
-8.42208
-8.46291
-8.50496
-8.54785
-8.5911
-8.63435
-8.67719
-8.71929
-8.76031
-8.79996
-8.838
-8.87421
-8.90839
-8.9404
-8.9701
-8.99739
-9.02219
-9.04442
-9.06406
-9.08103
-9.09535
-9.10697
-9.11591
-9.12216
-9.12573
-9.12663
-9.12489
-9.1205
-9.11352
-9.10395
-9.09187
-9.07728
-9.06027
-9.04086
-9.01915
-8.99518
-8.96909
-8.9409
-8.91077
-8.87875
-8.84499
-8.80957
-8.77265
-8.7343
-8.69468
-8.65389
-8.61208
-8.56931
-8.52569
-8.48131
-8.43629
-8.39064
-8.34445
-8.29773
-8.2505
-8.2026
-8.15401
-8.10456
-8.0539
-8.00161
-7.94734
-7.89109
-7.83237
-7.77041
-7.70472
-7.63446
-7.55892
-7.47705
-7.38806
-7.29092
-7.18456
-7.06776
-6.93924
-6.79773
-6.64166
-6.46988
-6.28088
-6.07357
-5.84652
-5.59856
-5.32825
-5.03461
-4.71641
-4.37278
-4.00274
-3.60591
-3.18188
-2.73069
-2.25249
-1.7479
-1.21775
-0.663311
-0.086016
0.512323
1.12951
1.76288
2.40942
3.06583
3.72858
4.39405
5.05848
5.71824
6.36964
7.00927
7.63387
8.24054
8.82662
9.38993
9.92862
10.4413
10.9272
11.3856
11.8165
12.2201
12.5968
12.9474
13.2729
13.574
13.8517
14.1067
14.3402
14.5531
14.7469
14.9228
15.0819
15.2256
15.3551
15.4715
15.576
15.6694
15.7529
15.8274
15.8936
15.9523
16.0043
16.0502
16.0908
16.1265
16.1579
16.1857
16.2104
16.2326
16.253
16.2726
16.2924
16.3143
16.3405
16.3753
16.4215
16.4974
16.5734
-8.08678
-8.09082
-8.09472
-8.09903
-8.10279
-8.10526
-8.10646
-8.10659
-8.10583
-8.10442
-8.10277
-8.10136
-8.10055
-8.10063
-8.10201
-8.10531
-8.11102
-8.11911
-8.12947
-8.14187
-8.15635
-8.17328
-8.19312
-8.21587
-8.2416
-8.27031
-8.30183
-8.33591
-8.37225
-8.41048
-8.45025
-8.49115
-8.53282
-8.57484
-8.61686
-8.65849
-8.69939
-8.73927
-8.77783
-8.81484
-8.85008
-8.88338
-8.91456
-8.94351
-8.97012
-8.99431
-9.01599
-9.03513
-9.05165
-9.06557
-9.07682
-9.08543
-9.09136
-9.09463
-9.09523
-9.0932
-9.08852
-9.08124
-9.07136
-9.05894
-9.04401
-9.02663
-9.00683
-8.98471
-8.96031
-8.93375
-8.90508
-8.87444
-8.8419
-8.80761
-8.77166
-8.7342
-8.69534
-8.65523
-8.614
-8.57178
-8.52867
-8.48479
-8.44023
-8.3951
-8.34945
-8.30334
-8.25682
-8.20988
-8.16245
-8.11445
-8.06576
-8.01612
-7.965
-7.91243
-7.85806
-7.80145
-7.74206
-7.6792
-7.61223
-7.5403
-7.46253
-7.37793
-7.28554
-7.18421
-7.07271
-6.94976
-6.81396
-6.664
-6.49854
-6.31633
-6.116
-5.89626
-5.6558
-5.39335
-5.10776
-4.79784
-4.46259
-4.10117
-3.71304
-3.2978
-2.85543
-2.38603
-1.89007
-1.36835
-0.822059
-0.252544
0.338424
0.948722
1.57578
2.21667
2.86817
3.52683
4.18905
4.85111
5.50935
6.16007
6.79982
7.42531
8.03359
8.622
9.18836
9.73088
10.2482
10.7395
11.2041
11.6418
12.0526
12.4369
12.7953
13.1285
13.4372
13.7222
13.9844
14.2247
14.4444
14.6447
14.8267
14.9918
15.1411
15.2759
15.3973
15.5065
15.6043
15.692
15.7702
15.84
15.9021
15.9572
16.006
16.0492
16.0874
16.1212
16.1512
16.1779
16.2019
16.224
16.245
16.266
16.2886
16.3145
16.3471
16.3869
16.446
16.4893
-8.06412
-8.07182
-8.08037
-8.08757
-8.09297
-8.09643
-8.09818
-8.09859
-8.09799
-8.09667
-8.09508
-8.09368
-8.09293
-8.09327
-8.09512
-8.09892
-8.10503
-8.11361
-8.1247
-8.13828
-8.15439
-8.17312
-8.19453
-8.21864
-8.24547
-8.27493
-8.30688
-8.34107
-8.37723
-8.41501
-8.4541
-8.49412
-8.53472
-8.57554
-8.61623
-8.65647
-8.69596
-8.73441
-8.77158
-8.80724
-8.84118
-8.87325
-8.90329
-8.93117
-8.95678
-8.98004
-9.00086
-9.0192
-9.03498
-9.0482
-9.05879
-9.06677
-9.07209
-9.07477
-9.07478
-9.07215
-9.06688
-9.05899
-9.04849
-9.03544
-9.01985
-9.0018
-8.98131
-8.95848
-8.93336
-8.90606
-8.87665
-8.84525
-8.81197
-8.77694
-8.74028
-8.70213
-8.66264
-8.62196
-8.58023
-8.53759
-8.49418
-8.45013
-8.40554
-8.36053
-8.31516
-8.26951
-8.22362
-8.17748
-8.13105
-8.08424
-8.03696
-7.98891
-7.93986
-7.8893
-7.83751
-7.7836
-7.72725
-7.66766
-7.60433
-7.5363
-7.46282
-7.38278
-7.29526
-7.19907
-7.09295
-6.97566
-6.84565
-6.70178
-6.54251
-6.36678
-6.17296
-5.95997
-5.72617
-5.47059
-5.19175
-4.8887
-4.56017
-4.20562
-3.8242
-3.41566
-2.97969
-2.5165
-2.02637
-1.51019
-0.968945
-0.404055
0.182806
0.789488
1.41347
2.05186
2.70145
3.35884
4.02036
4.68237
5.34107
5.99283
6.63406
7.26155
7.87224
8.46355
9.03328
9.57968
10.1014
10.5974
11.0671
11.51
11.9264
12.3162
12.6802
13.0188
13.3328
13.6229
13.8902
14.1355
14.36
14.5649
14.7514
14.9208
15.0743
15.2131
15.3383
15.4511
15.5523
15.6431
15.7244
15.7969
15.8616
15.919
15.9701
16.0153
16.0554
16.091
16.1226
16.1507
16.176
16.1992
16.221
16.2424
16.2646
16.2891
16.3182
16.3506
16.3944
16.4115
-8.03751
-8.04893
-8.06285
-8.07359
-8.08129
-8.08649
-8.08962
-8.09117
-8.09161
-8.09133
-8.09081
-8.09049
-8.09087
-8.0924
-8.0955
-8.10055
-8.10787
-8.11762
-8.12992
-8.14479
-8.16228
-8.18237
-8.20509
-8.23036
-8.25815
-8.2883
-8.32064
-8.35492
-8.39088
-8.42819
-8.46656
-8.50564
-8.54513
-8.5847
-8.62405
-8.66289
-8.70094
-8.73795
-8.7737
-8.80797
-8.84058
-8.87136
-8.90018
-8.9269
-8.95141
-8.97363
-8.99347
-9.01088
-9.02577
-9.03813
-9.0479
-9.05506
-9.05958
-9.06147
-9.06068
-9.05725
-9.05116
-9.04244
-9.03108
-9.01716
-9.00067
-8.98169
-8.96026
-8.93648
-8.91038
-8.8821
-8.85171
-8.81934
-8.7851
-8.74913
-8.71157
-8.67258
-8.63231
-8.59093
-8.54859
-8.50547
-8.46171
-8.41746
-8.37286
-8.32802
-8.28305
-8.23801
-8.19297
-8.14793
-8.10286
-8.05767
-8.01228
-7.96647
-7.91968
-7.87222
-7.82334
-7.77289
-7.72013
-7.66453
-7.60536
-7.54187
-7.4731
-7.39812
-7.31588
-7.22521
-7.12489
-7.0135
-6.88968
-6.75202
-6.59926
-6.42999
-6.24285
-6.03641
-5.80928
-5.56014
-5.28779
-4.99103
-4.66883
-4.32035
-3.94486
-3.54187
-3.11116
-2.65278
-2.16708
-1.6548
-1.1169
-0.554741
0.0299786
0.635105
1.25812
1.89613
2.54593
3.20407
3.86688
4.53064
5.19153
5.84586
6.49005
7.12081
7.73511
8.33037
8.90438
9.45531
9.98171
10.4825
10.9571
11.4049
11.826
12.2205
12.589
12.9319
13.2501
13.5442
13.8153
14.0644
14.2926
14.5011
14.691
14.8638
15.0205
15.1623
15.2905
15.406
15.51
15.6034
15.687
15.7618
15.8286
15.888
15.9408
15.9876
16.0292
16.0661
16.0988
16.128
16.1542
16.1779
16.2
16.2212
16.2425
16.2647
16.2894
16.3142
16.3447
16.3409
-8.01125
-8.02597
-8.045
-8.0592
-8.06942
-8.07675
-8.08176
-8.085
-8.08703
-8.08835
-8.08944
-8.09076
-8.09281
-8.096
-8.10076
-8.10742
-8.11627
-8.12749
-8.14121
-8.15746
-8.17629
-8.19764
-8.22148
-8.24771
-8.27622
-8.30684
-8.33937
-8.37358
-8.40922
-8.44599
-8.48362
-8.5218
-8.56025
-8.59866
-8.63678
-8.67432
-8.71104
-8.74671
-8.78112
-8.81407
-8.84539
-8.87492
-8.90253
-8.92808
-8.95147
-8.97261
-8.99141
-9.0078
-9.02172
-9.03312
-9.04194
-9.04817
-9.05175
-9.05269
-9.05094
-9.04654
-9.03944
-9.02968
-9.01727
-9.00226
-8.98465
-8.96452
-8.94192
-8.91694
-8.88964
-8.86015
-8.82856
-8.795
-8.75959
-8.7225
-8.68387
-8.64388
-8.6027
-8.56051
-8.51748
-8.47381
-8.42966
-8.38521
-8.3406
-8.29599
-8.25148
-8.20717
-8.16314
-8.11939
-8.0759
-8.03263
-7.98947
-7.94612
-7.90243
-7.85799
-7.81277
-7.76622
-7.71759
-7.66647
-7.61198
-7.55348
-7.48992
-7.42042
-7.34387
-7.25909
-7.16488
-7.05966
-6.94223
-6.81096
-6.6648
-6.50205
-6.32156
-6.12159
-5.90104
-5.65824
-5.39218
-5.10145
-4.78524
-4.44233
-4.07216
-3.67402
-3.24782
-2.79342
-2.31126
-1.80185
-1.26621
-0.705613
-0.121828
0.483011
1.10636
1.74529
2.39659
3.05672
3.72205
4.38868
5.05288
5.71079
6.35892
6.99387
7.61268
8.21265
8.79151
9.34738
9.87873
10.3845
10.8638
11.3163
11.7419
12.1407
12.5132
12.8599
13.1817
13.4792
13.7536
14.0058
14.237
14.4483
14.6411
14.8165
14.9757
15.1201
15.2506
15.3684
15.4746
15.5701
15.6557
15.7324
15.801
15.862
15.9163
15.9645
16.0073
16.0452
16.0789
16.1088
16.1355
16.1595
16.1814
16.2019
16.2217
16.2413
16.2613
16.2786
16.2976
16.277
-7.9889
-8.00633
-8.02956
-8.04673
-8.05925
-8.06872
-8.07573
-8.08086
-8.08472
-8.08786
-8.09079
-8.09397
-8.09787
-8.10289
-8.10943
-8.11777
-8.12822
-8.14091
-8.156
-8.17351
-8.19348
-8.21585
-8.24057
-8.26749
-8.2965
-8.3274
-8.36001
-8.39407
-8.42935
-8.46558
-8.50251
-8.53984
-8.57732
-8.61467
-8.65165
-8.68801
-8.72352
-8.75796
-8.79114
-8.82287
-8.85299
-8.88135
-8.90781
-8.93226
-8.95457
-8.97465
-8.99242
-9.00781
-9.02072
-9.03112
-9.03895
-9.04417
-9.04673
-9.04663
-9.04381
-9.03829
-9.03004
-9.01911
-9.00546
-8.98917
-8.97025
-8.94878
-8.92479
-8.89841
-8.86969
-8.83877
-8.80575
-8.77079
-8.73402
-8.69563
-8.65576
-8.61462
-8.5724
-8.52929
-8.4855
-8.44124
-8.39669
-8.35205
-8.3075
-8.26319
-8.21925
-8.17582
-8.13296
-8.09071
-8.04906
-8.00796
-7.96731
-7.92689
-7.88633
-7.84568
-7.80444
-7.7621
-7.71813
-7.67183
-7.62256
-7.56943
-7.51155
-7.44793
-7.37746
-7.29897
-7.21106
-7.11237
-7.00139
-6.87677
-6.73713
-6.58105
-6.40704
-6.21364
-5.99944
-5.76298
-5.50291
-5.21803
-4.90726
-4.56953
-4.20405
-3.81023
-3.38783
-2.93676
-2.45729
-1.94993
-1.41563
-0.855681
-0.271878
0.33363
0.958255
1.59906
2.25276
2.91579
3.58442
4.25478
4.92301
5.5853
6.23806
6.87788
7.5017
8.10678
8.69077
9.25173
9.7881
10.2987
10.7827
11.2397
11.6695
12.0723
12.4484
12.7986
13.1235
13.4241
13.7013
13.9562
14.1899
14.4037
14.5987
14.7764
14.9378
15.0841
15.2167
15.3364
15.4443
15.5415
15.6289
15.7072
15.7772
15.8397
15.8954
15.9448
15.9886
16.0275
16.0618
16.0923
16.1192
16.1432
16.1647
16.1843
16.2023
16.2188
16.234
16.2442
16.2533
16.2192
-7.97289
-7.99232
-8.01847
-8.0378
-8.05218
-8.0635
-8.07235
-8.07927
-8.08493
-8.08987
-8.09462
-8.09962
-8.10533
-8.1121
-8.12032
-8.13024
-8.14214
-8.15615
-8.17242
-8.19097
-8.21184
-8.23495
-8.26025
-8.2876
-8.31687
-8.34785
-8.38036
-8.41416
-8.44902
-8.4847
-8.52093
-8.55747
-8.59406
-8.63045
-8.66642
-8.70172
-8.73616
-8.76951
-8.80161
-8.83226
-8.86133
-8.88864
-8.91408
-8.93752
-8.95884
-8.97796
-8.99476
-9.00917
-9.02112
-9.03054
-9.03736
-9.04155
-9.04304
-9.04183
-9.03786
-9.03114
-9.02163
-9.00937
-8.99435
-8.97663
-8.95622
-8.93321
-8.90765
-8.87966
-8.84931
-8.81675
-8.78211
-8.74555
-8.70722
-8.66732
-8.62605
-8.5836
-8.5402
-8.49608
-8.45146
-8.40655
-8.36159
-8.31678
-8.27232
-8.2284
-8.18517
-8.14276
-8.10126
-8.06073
-8.02117
-7.98253
-7.94471
-7.90748
-7.8707
-7.83385
-7.79705
-7.75935
-7.72039
-7.67936
-7.63567
-7.58834
-7.53653
-7.47921
-7.4152
-7.34332
-7.26201
-7.17004
-7.0657
-6.94789
-6.81489
-6.66559
-6.49812
-6.31132
-6.10335
-5.87307
-5.61876
-5.33947
-5.03374
-4.70076
-4.33945
-3.94943
-3.53021
-3.08181
-2.60427
-2.09821
-1.56445
-1.00441
-0.419816
0.187101
0.813727
1.4571
2.11386
2.78046
3.45303
4.12776
4.80066
5.46796
6.12589
6.77105
7.40025
8.01069
8.59998
9.16609
9.70744
10.2228
10.7113
11.1725
11.6062
12.0127
12.3923
12.7456
13.0734
13.3766
13.6563
13.9135
14.1494
14.3653
14.5623
14.7418
14.905
15.0531
15.1873
15.3086
15.4181
15.5168
15.6055
15.6852
15.7565
15.8203
15.8771
15.9276
15.9724
16.012
16.047
16.0778
16.1049
16.1287
16.1496
16.1679
16.1839
16.1973
16.2078
16.2113
16.212
16.167
-7.96454
-7.98512
-8.01276
-8.03333
-8.04897
-8.06167
-8.07199
-8.08041
-8.08761
-8.09413
-8.10049
-8.1071
-8.11439
-8.12269
-8.13236
-8.14361
-8.15672
-8.17179
-8.18897
-8.20829
-8.22977
-8.25334
-8.27896
-8.30647
-8.33575
-8.36661
-8.39887
-8.43229
-8.46666
-8.50174
-8.5373
-8.57308
-8.60886
-8.64439
-8.67947
-8.71386
-8.74738
-8.77981
-8.81099
-8.84074
-8.86891
-8.89534
-8.9199
-8.94247
-8.96293
-8.98118
-8.99711
-9.01063
-9.02166
-9.03014
-9.03597
-9.03913
-9.03953
-9.03717
-9.03198
-9.02397
-9.0131
-8.9994
-8.98286
-8.96355
-8.94149
-8.91676
-8.88943
-8.85963
-8.82745
-8.79305
-8.75657
-8.71821
-8.67813
-8.63655
-8.59369
-8.5498
-8.5051
-8.45984
-8.41429
-8.3687
-8.3233
-8.27834
-8.23403
-8.19059
-8.14817
-8.10694
-8.067
-8.02842
-7.99119
-7.95528
-7.92061
-7.88698
-7.85394
-7.82169
-7.78941
-7.75682
-7.72315
-7.68782
-7.65001
-7.60889
-7.56352
-7.51281
-7.45563
-7.39053
-7.31614
-7.23094
-7.13358
-7.02259
-6.89657
-6.75395
-6.59322
-6.41277
-6.21109
-5.98666
-5.73802
-5.46388
-5.16296
-4.8342
-4.47672
-4.08995
-3.67345
-3.2271
-2.75096
-2.24558
-1.71184
-1.15116
-0.565291
0.0435066
0.672599
1.31897
1.97928
2.64991
3.327
4.00664
4.6848
5.35756
6.02112
6.67194
7.30676
7.92271
8.51734
9.08859
9.63481
10.1547
10.6475
11.1127
11.5502
11.96
12.3427
12.6988
13.0293
13.3349
13.6167
13.876
14.1138
14.3315
14.5303
14.7114
14.8762
15.0258
15.1615
15.2842
15.395
15.4949
15.5849
15.6657
15.7382
15.803
15.8608
15.9123
15.9579
15.9983
16.0338
16.0649
16.092
16.1155
16.1356
16.1526
16.1664
16.1767
16.1827
16.1802
16.1735
16.1196
-7.96404
-7.98493
-8.01263
-8.03357
-8.04982
-8.06333
-8.07461
-8.08412
-8.09248
-8.10023
-8.10785
-8.11573
-8.12428
-8.13377
-8.14455
-8.15681
-8.1708
-8.18662
-8.20441
-8.22419
-8.24599
-8.26974
-8.29541
-8.32284
-8.35193
-8.38249
-8.41435
-8.4473
-8.48111
-8.51558
-8.55047
-8.58554
-8.62059
-8.65537
-8.68969
-8.72332
-8.75608
-8.78776
-8.8182
-8.84722
-8.87466
-8.90038
-8.92423
-8.94608
-8.96582
-8.98333
-8.99849
-9.01122
-9.02141
-9.02898
-9.03385
-9.03598
-9.03528
-9.03172
-9.02525
-9.01586
-9.00351
-8.98824
-8.97004
-8.94897
-8.92507
-8.89844
-8.86915
-8.83733
-8.80311
-8.76666
-8.72815
-8.68778
-8.64575
-8.60232
-8.55772
-8.51222
-8.46609
-8.41962
-8.37308
-8.32675
-8.2809
-8.23581
-8.19171
-8.14883
-8.10737
-8.06747
-8.02928
-7.99285
-7.95821
-7.92531
-7.89407
-7.86422
-7.83561
-7.80782
-7.78064
-7.75342
-7.72539
-7.69603
-7.66444
-7.62981
-7.59115
-7.54731
-7.49711
-7.43895
-7.3716
-7.29335
-7.20309
-7.09902
-6.97997
-6.84401
-6.6899
-6.51569
-6.3201
-6.10129
-5.85806
-5.58875
-5.29234
-4.9675
-4.61356
-4.22969
-3.81559
-3.3709
-2.89584
-2.39082
-1.85689
-1.29534
-0.707988
-0.0970468
0.534836
1.1846
1.84892
2.52408
3.20621
3.8912
4.57504
5.25359
5.92304
6.57969
7.22023
7.84174
8.44168
9.01797
9.56889
10.0932
10.5901
11.059
11.4999
11.9129
12.2984
12.6571
12.9899
13.2976
13.5814
13.8425
14.082
14.3013
14.5016
14.6842
14.8503
15.0013
15.1382
15.2621
15.3741
15.4752
15.5663
15.6481
15.7216
15.7874
15.8462
15.8985
15.9449
15.9859
16.0218
16.0532
16.0802
16.1033
16.1226
16.1382
16.1499
16.157
16.1588
16.1508
16.1378
16.0766
-7.97076
-7.99116
-8.01776
-8.03826
-8.05449
-8.0682
-8.07989
-8.08997
-8.09904
-8.10757
-8.11604
-8.12478
-8.13417
-8.14447
-8.15599
-8.1689
-8.18342
-8.19965
-8.21772
-8.23765
-8.25948
-8.28315
-8.30862
-8.33577
-8.36448
-8.39459
-8.42594
-8.45831
-8.49153
-8.52537
-8.55961
-8.59404
-8.62843
-8.66257
-8.69625
-8.72926
-8.76142
-8.79252
-8.8224
-8.85087
-8.87777
-8.90295
-8.92627
-8.94757
-8.96673
-8.98362
-8.99813
-9.01014
-9.01955
-9.02627
-9.0302
-9.03129
-9.02944
-9.02464
-9.01681
-9.00594
-8.99199
-8.975
-8.95497
-8.93198
-8.90605
-8.87731
-8.84584
-8.8118
-8.77532
-8.73661
-8.69585
-8.65328
-8.60912
-8.56366
-8.51715
-8.46992
-8.42225
-8.37446
-8.32687
-8.27978
-8.2335
-8.18831
-8.14449
-8.10228
-8.06189
-8.02351
-7.98725
-7.95321
-7.92138
-7.89175
-7.86421
-7.83851
-7.81435
-7.79163
-7.76975
-7.74809
-7.72603
-7.70282
-7.6777
-7.64977
-7.61797
-7.58117
-7.53795
-7.48693
-7.42656
-7.35549
-7.27216
-7.17515
-7.06281
-6.93359
-6.7858
-6.61782
-6.428
-6.21476
-5.97661
-5.71212
-5.42
-5.09912
-4.74857
-4.36762
-3.95577
-3.51272
-3.03859
-2.53387
-1.99954
-1.4369
-0.847729
-0.234253
0.400833
1.05446
1.72322
2.40334
3.09083
3.78152
4.47125
5.15582
5.83125
6.49378
7.14003
7.76699
8.3721
8.95322
9.50864
10.0371
10.5378
11.0102
11.4542
11.87
12.2581
12.6191
12.954
13.2636
13.5492
13.8119
14.0529
14.2736
14.4752
14.6591
14.8265
14.9787
15.1168
15.2418
15.3549
15.4571
15.5491
15.632
15.7064
15.7731
15.8327
15.8859
15.933
15.9745
16.0108
16.0423
16.0693
16.0919
16.1103
16.1245
16.1341
16.1382
16.1361
16.1232
16.1047
16.0376
-7.98355
-8.00282
-8.02747
-8.04684
-8.06243
-8.07575
-8.08728
-8.09741
-8.10668
-8.11551
-8.12435
-8.1335
-8.1433
-8.15399
-8.16584
-8.17901
-8.19371
-8.21001
-8.22805
-8.24785
-8.26945
-8.29279
-8.31785
-8.34451
-8.37269
-8.40222
-8.43296
-8.46471
-8.4973
-8.53051
-8.56415
-8.59798
-8.6318
-8.6654
-8.69857
-8.73111
-8.76282
-8.79351
-8.82299
-8.85108
-8.87762
-8.90242
-8.92536
-8.94625
-8.96496
-8.98135
-8.9953
-9.00667
-9.01535
-9.02124
-9.02422
-9.02425
-9.02121
-9.01508
-9.00577
-8.99329
-8.97759
-8.95872
-8.93667
-8.91154
-8.88337
-8.8523
-8.81842
-8.78191
-8.74293
-8.70172
-8.65847
-8.61346
-8.56694
-8.51923
-8.47064
-8.4215
-8.37214
-8.32293
-8.27419
-8.22629
-8.17955
-8.13429
-8.09079
-8.04934
-8.01016
-7.97343
-7.9393
-7.90784
-7.87907
-7.85296
-7.82936
-7.80807
-7.78886
-7.77123
-7.75497
-7.73918
-7.7233
-7.70652
-7.68808
-7.66705
-7.64228
-7.61265
-7.57655
-7.53276
-7.47951
-7.41566
-7.33936
-7.2494
-7.14382
-7.02131
-6.87985
-6.71809
-6.53405
-6.32643
-6.09339
-5.83373
-5.54588
-5.22891
-4.88165
-4.5035
-4.0937
-3.65209
-3.17859
-2.67386
-2.13874
-1.57461
-0.983216
-0.366805
0.271874
0.929723
1.6032
2.28854
2.98154
3.67804
4.37369
5.06426
5.74561
6.41393
7.06572
7.69794
8.30799
8.89366
9.4533
9.98559
10.4898
10.9653
11.4122
11.8305
12.2209
12.5841
12.9208
13.2321
13.5192
13.7833
14.0257
14.2477
14.4505
14.6356
14.8042
14.9574
15.0966
15.2227
15.3368
15.44
15.533
15.6168
15.6922
15.7597
15.8202
15.874
15.9218
15.9638
16.0005
16.0321
16.0589
16.0811
16.0986
16.1114
16.119
16.1204
16.1147
16.0974
16.0741
16.0022
-8.00109
-8.01878
-8.04092
-8.0586
-8.07301
-8.08539
-8.09622
-8.10586
-8.1148
-8.12342
-8.13212
-8.14119
-8.15095
-8.16158
-8.17335
-8.18639
-8.2009
-8.21694
-8.23465
-8.25402
-8.27513
-8.29792
-8.32238
-8.3484
-8.37592
-8.40477
-8.43483
-8.46592
-8.49786
-8.53045
-8.56348
-8.59676
-8.63008
-8.66323
-8.69601
-8.7282
-8.75961
-8.79002
-8.81926
-8.84712
-8.87344
-8.89802
-8.92069
-8.94128
-8.95964
-8.97561
-8.98904
-8.99979
-9.00773
-9.01275
-9.01473
-9.01358
-9.00921
-9.00158
-8.9906
-8.97629
-8.9586
-8.93759
-8.91326
-8.88571
-8.85501
-8.82129
-8.78468
-8.74537
-8.70357
-8.65952
-8.61347
-8.56572
-8.51657
-8.46637
-8.41546
-8.36421
-8.31301
-8.26224
-8.21229
-8.16354
-8.11634
-8.07106
-8.02798
-7.98744
-7.94962
-7.91478
-7.883
-7.85442
-7.82903
-7.80674
-7.7875
-7.771
-7.75686
-7.74503
-7.73462
-7.72513
-7.71575
-7.70576
-7.69434
-7.68045
-7.66304
-7.6407
-7.61208
-7.57557
-7.52977
-7.47311
-7.40411
-7.3211
-7.22249
-7.10655
-6.97157
-6.81584
-6.63768
-6.43541
-6.20745
-5.9523
-5.66862
-5.35524
-5.01109
-4.63533
-4.22727
-3.78663
-3.31344
-2.80826
-2.27196
-1.70594
-1.11195
-0.492305
0.150236
0.812449
1.49077
2.18129
2.8798
3.58199
4.28342
4.97974
5.66674
6.34048
6.99745
7.63452
8.24905
8.83885
9.40224
9.93796
10.4452
10.9235
11.3729
11.7936
12.186
12.5509
12.8893
13.2021
13.4906
13.756
13.9996
14.2227
14.4267
14.6129
14.7825
14.9369
15.077
15.2042
15.3193
15.4235
15.5175
15.6023
15.6785
15.747
15.8082
15.8628
15.9111
15.9536
15.9906
16.0223
16.049
16.0707
16.0874
16.0989
16.1046
16.1034
16.0944
16.0732
16.0457
15.97
-8.02207
-8.03791
-8.05723
-8.07282
-8.08557
-8.0965
-8.10609
-8.1147
-8.12276
-8.13062
-8.13867
-8.14715
-8.15636
-8.16647
-8.17773
-8.19023
-8.20416
-8.21959
-8.23663
-8.25531
-8.27568
-8.29769
-8.32136
-8.34658
-8.37329
-8.40134
-8.43062
-8.46096
-8.49221
-8.52415
-8.55662
-8.58939
-8.62227
-8.65505
-8.68752
-8.71945
-8.75066
-8.7809
-8.81
-8.83773
-8.86391
-8.88832
-8.91079
-8.93113
-8.94915
-8.96468
-8.97756
-8.98764
-8.99475
-8.99879
-8.99961
-8.99712
-8.99123
-8.98187
-8.96899
-8.95257
-8.93261
-8.90914
-8.88219
-8.85186
-8.81824
-8.7815
-8.7418
-8.69936
-8.6544
-8.60721
-8.55807
-8.50732
-8.4553
-8.4024
-8.34901
-8.29554
-8.24243
-8.19007
-8.13894
-8.08938
-8.04186
-7.99668
-7.95427
-7.91484
-7.87873
-7.84606
-7.81705
-7.79171
-7.77006
-7.75206
-7.73756
-7.72622
-7.71789
-7.71193
-7.70794
-7.70507
-7.70256
-7.69966
-7.69551
-7.68901
-7.6791
-7.66423
-7.64315
-7.61402
-7.57566
-7.52619
-7.46438
-7.38824
-7.29645
-7.1869
-7.05821
-6.9083
-6.73575
-6.53855
-6.31535
-6.06441
-5.78457
-5.4744
-5.13297
-4.75915
-4.35242
-3.91233
-3.43908
-2.93309
-2.39537
-1.82723
-1.23056
-0.607673
0.0386617
0.705123
1.38812
2.0836
2.78737
3.49488
4.20167
4.90324
5.59529
6.27386
6.93534
7.57661
8.19497
8.78829
9.35484
9.89345
10.4033
10.884
11.3354
11.758
12.1522
12.5187
12.8584
13.1726
13.4623
13.7289
13.9736
14.1979
14.403
14.5902
14.7609
14.9163
15.0576
15.1857
15.3019
15.4071
15.5021
15.5879
15.6651
15.7344
15.7965
15.8518
15.9007
15.9437
15.981
16.0129
16.0394
16.0607
16.0766
16.0868
16.0907
16.0872
16.0753
16.0508
16.0196
15.9409
-8.04627
-8.06018
-8.07661
-8.08981
-8.10043
-8.10936
-8.11711
-8.12404
-8.13057
-8.13704
-8.1438
-8.15108
-8.15917
-8.16819
-8.17839
-8.18983
-8.20271
-8.21705
-8.23301
-8.25056
-8.26981
-8.29069
-8.31323
-8.33733
-8.36296
-8.38997
-8.41828
-8.44772
-8.47816
-8.50939
-8.54123
-8.57348
-8.60593
-8.63835
-8.67055
-8.70227
-8.73332
-8.76344
-8.79245
-8.82007
-8.84614
-8.87038
-8.89264
-8.91266
-8.93029
-8.9453
-8.95752
-8.96678
-8.97291
-8.97578
-8.97523
-8.97119
-8.96351
-8.95218
-8.93709
-8.91829
-8.89572
-8.86948
-8.83955
-8.80613
-8.76928
-8.72921
-8.68612
-8.64023
-8.59182
-8.54121
-8.48873
-8.43478
-8.37972
-8.32402
-8.26807
-8.21238
-8.15735
-8.10354
-8.05129
-8.00114
-7.95352
-7.90877
-7.86731
-7.8294
-7.79536
-7.76534
-7.73952
-7.71789
-7.70049
-7.68731
-7.67802
-7.67242
-7.67008
-7.67064
-7.67335
-7.6774
-7.68205
-7.68649
-7.68976
-7.69084
-7.68841
-7.68117
-7.66746
-7.64581
-7.6146
-7.57234
-7.51734
-7.44802
-7.36258
-7.25933
-7.13644
-6.99216
-6.82472
-6.63237
-6.41345
-6.16645
-5.88999
-5.58274
-5.24353
-4.87137
-4.4656
-4.0259
-3.55242
-3.04565
-2.50656
-1.93651
-1.33736
-0.711473
-0.0616728
0.608736
1.296
1.99602
2.70444
3.41666
4.12806
4.83407
5.53036
6.21289
6.87806
7.5227
8.14415
8.74026
9.30936
9.85026
10.3622
10.8448
11.298
11.7222
12.1178
12.4857
12.8268
13.1421
13.433
13.7007
13.9466
14.172
14.3782