/*--------------------------------*- C++ -*----------------------------------*\
  =========                 |
  \\      /  F ield         | OpenFOAM: The Open Source CFD Toolbox
   \\    /   O peration     | Website:  https://openfoam.org
    \\  /    A nd           | Version:  11
     \\/     M anipulation  |
\*---------------------------------------------------------------------------*/
FoamFile
{
    format      ascii;
    class       surfaceScalarField;
    location    "100";
    object      phi;
}
// * * * * * * * * * * * * * * * * * * * * * * * * * * * * * * * * * * * * * //

dimensions      [0 3 -1 0 0 0 0];

internalField   nonuniform List<scalar> 
24170
(
3.129e-06
5.94063e-08
3.0466e-06
8.23994e-08
2.97347e-06
7.31237e-08
2.90478e-06
6.86824e-08
2.84037e-06
6.43998e-08
2.78294e-06
5.74271e-08
2.73349e-06
4.94468e-08
2.69136e-06
4.21149e-08
2.65547e-06
3.58882e-08
2.62473e-06
3.0735e-08
2.59813e-06
2.65931e-08
2.57478e-06
2.33477e-08
2.55392e-06
2.08524e-08
2.53479e-06
1.91267e-08
2.51673e-06
1.80617e-08
2.49751e-06
1.92126e-08
2.47717e-06
2.03421e-08
3.98343e-08
2.43733e-06
3.45306e-06
2.3593e-08
3.457e-06
7.8461e-08
3.45052e-06
7.95976e-08
3.43904e-06
8.01589e-08
3.42422e-06
7.92104e-08
3.40693e-06
7.47155e-08
3.38763e-06
6.87353e-08
3.36701e-06
6.27319e-08
3.34573e-06
5.71585e-08
3.32438e-06
5.2078e-08
3.30343e-06
4.75427e-08
3.28312e-06
4.36451e-08
3.26364e-06
4.03301e-08
3.24496e-06
3.78095e-08
3.22717e-06
3.58439e-08
3.2101e-06
3.62858e-08
3.19432e-06
3.61252e-08
4.85908e-08
3.18556e-06
3.66815e-06
1.79555e-08
3.67918e-06
6.74294e-08
3.68539e-06
7.33879e-08
3.68939e-06
7.61521e-08
3.69095e-06
7.76508e-08
3.68992e-06
7.57334e-08
3.68671e-06
7.19423e-08
3.68177e-06
6.76668e-08
3.67549e-06
6.34357e-08
3.66818e-06
5.93844e-08
3.66011e-06
5.56137e-08
3.65149e-06
5.22561e-08
3.64249e-06
4.9329e-08
3.63322e-06
4.70745e-08
3.62366e-06
4.5405e-08
3.61436e-06
4.55801e-08
3.6043e-06
4.61797e-08
5.25505e-08
3.60034e-06
3.92584e-06
1.75014e-08
3.9359e-06
5.73726e-08
3.94252e-06
6.67588e-08
3.94803e-06
7.06442e-08
3.95239e-06
7.32806e-08
3.95528e-06
7.28448e-08
3.95687e-06
7.03491e-08
3.9574e-06
6.71335e-08
3.95705e-06
6.37784e-08
3.95596e-06
6.04667e-08
3.95426e-06
5.73126e-08
3.95204e-06
5.44667e-08
3.94939e-06
5.19835e-08
3.94638e-06
5.00788e-08
3.94302e-06
4.87684e-08
3.93981e-06
4.87809e-08
3.93648e-06
4.95099e-08
5.26603e-08
3.93637e-06
4.20819e-06
1.64357e-08
4.21596e-06
4.96024e-08
4.22163e-06
6.10854e-08
4.2267e-06
6.55749e-08
4.23139e-06
6.85809e-08
4.2353e-06
6.89376e-08
4.23838e-06
6.72633e-08
4.24075e-06
6.47621e-08
4.2425e-06
6.20207e-08
4.24372e-06
5.92424e-08
4.24448e-06
5.65499e-08
4.24485e-06
5.40926e-08
4.24488e-06
5.19513e-08
4.24466e-06
5.02972e-08
4.24424e-06
4.91859e-08
4.24402e-06
4.89946e-08
4.24411e-06
4.94206e-08
5.07936e-08
4.24598e-06
4.5107e-06
1.482e-08
4.51686e-06
4.34455e-08
4.52208e-06
5.58637e-08
4.52685e-06
6.07967e-08
4.53151e-06
6.39198e-08
4.53569e-06
6.47561e-08
4.53927e-06
6.36746e-08
4.54232e-06
6.17081e-08
4.54491e-06
5.94316e-08
4.54709e-06
5.70615e-08
4.5489e-06
5.47299e-08
4.55042e-06
5.25766e-08
4.55167e-06
5.06941e-08
4.55276e-06
4.92088e-08
4.55377e-06
4.81755e-08
4.555e-06
4.77584e-08
4.55666e-06
4.77544e-08
4.80083e-08
4.55945e-06
4.83432e-06
1.32171e-08
4.8396e-06
3.81638e-08
4.8447e-06
5.07661e-08
4.84936e-06
5.61325e-08
4.85393e-06
5.93397e-08
4.85818e-06
6.0507e-08
4.86196e-06
5.98883e-08
4.86532e-06
5.83495e-08
4.8683e-06
5.64461e-08
4.87095e-06
5.44055e-08
4.87331e-06
5.23659e-08
4.87543e-06
5.04553e-08
4.87736e-06
4.87663e-08
4.87918e-06
4.73874e-08
4.881e-06
4.63548e-08
4.88304e-06
4.57115e-08
4.8855e-06
4.52877e-08
4.48053e-08
4.8887e-06
5.18104e-06
1.17582e-08
5.18573e-06
3.3474e-08
5.1907e-06
4.57918e-08
5.19531e-06
5.15214e-08
5.19984e-06
5.48076e-08
5.20412e-06
5.62161e-08
5.20803e-06
5.59766e-08
5.21158e-06
5.48013e-08
5.2148e-06
5.32148e-08
5.21775e-06
5.14538e-08
5.22046e-06
4.96584e-08
5.22296e-06
4.79461e-08
5.22533e-06
4.64014e-08
5.22763e-06
4.50847e-08
5.22997e-06
4.40107e-08
5.23252e-06
4.31593e-08
5.23542e-06
4.2382e-08
4.14183e-08
5.23881e-06
5.55268e-06
1.04105e-08
5.55686e-06
2.92928e-08
5.56164e-06
4.10111e-08
5.56621e-06
4.69518e-08
5.57071e-06
5.0295e-08
5.57505e-06
5.18765e-08
5.57907e-06
5.19517e-08
5.58277e-06
5.10956e-08
5.5862e-06
4.9789e-08
5.58937e-06
4.82735e-08
5.59234e-06
4.6689e-08
5.59514e-06
4.51421e-08
5.59783e-06
4.37074e-08
5.60049e-06
4.24254e-08
5.6032e-06
4.12941e-08
5.60609e-06
4.0268e-08
5.60925e-06
3.92215e-08
3.79525e-08
5.61272e-06
5.95103e-06
9.15491e-09
5.95476e-06
2.55607e-08
5.9593e-06
3.64642e-08
5.96382e-06
4.24342e-08
5.96831e-06
4.57972e-08
5.97269e-06
4.7493e-08
5.97682e-06
4.78211e-08
5.98067e-06
4.72432e-08
5.98427e-06
4.61855e-08
5.98765e-06
4.4889e-08
5.99085e-06
4.34897e-08
5.9939e-06
4.20851e-08
5.99687e-06
4.07387e-08
5.99981e-06
3.94788e-08
6.00281e-06
3.82948e-08
6.00594e-06
3.71362e-08
6.00926e-06
3.59045e-08
3.44602e-08
6.01275e-06
6.37798e-06
7.9909e-09
6.38132e-06
2.22105e-08
6.38562e-06
3.21587e-08
6.39007e-06
3.79825e-08
6.39455e-06
4.1317e-08
6.39896e-06
4.30748e-08
6.40319e-06
4.35939e-08
6.40718e-06
4.32506e-08
6.41094e-06
4.24125e-08
6.41452e-06
4.13101e-08
6.41793e-06
4.00756e-08
6.42122e-06
3.8796e-08
6.42443e-06
3.75267e-08
6.42762e-06
3.62883e-08
6.43084e-06
3.5069e-08
6.43415e-06
3.3825e-08
6.43757e-06
3.24852e-08
3.096e-08
6.44107e-06
5.74175e-06
7.07076e-09
5.74432e-06
1.96375e-08
5.74777e-06
2.87068e-08
5.75147e-06
3.42799e-08
5.75524e-06
3.7547e-08
5.75899e-06
3.93209e-08
5.76263e-06
3.9954e-08
5.7661e-06
3.97729e-08
5.76941e-06
3.90969e-08
5.77258e-06
3.81411e-08
5.77562e-06
3.70317e-08
5.77857e-06
3.58486e-08
5.78145e-06
3.46407e-08
5.78431e-06
3.34268e-08
5.78718e-06
3.21966e-08
5.79008e-06
3.09167e-08
5.79303e-06
2.95355e-08
2.80004e-08
5.79599e-06
6.99913e-06
6.09458e-09
7.00185e-06
1.69124e-08
7.0056e-06
2.49584e-08
7.00974e-06
3.01368e-08
7.01402e-06
3.32563e-08
7.01834e-06
3.50005e-08
7.02258e-06
3.57149e-08
7.02667e-06
3.56792e-08
7.0306e-06
3.51605e-08
7.03439e-06
3.43525e-08
7.03805e-06
3.33719e-08
7.0416e-06
3.22921e-08
7.04508e-06
3.11558e-08
7.04852e-06
2.99812e-08
7.05195e-06
2.87638e-08
7.05538e-06
2.74816e-08
7.05881e-06
2.6105e-08
2.46049e-08
7.06221e-06
8.53187e-06
5.06854e-09
8.53472e-06
1.4062e-08
8.53873e-06
2.09392e-08
8.54331e-06
2.5556e-08
8.54814e-06
2.84222e-08
8.55307e-06
3.0069e-08
8.55797e-06
3.08146e-08
8.56275e-06
3.08913e-08
8.5674e-06
3.05147e-08
8.5719e-06
2.98483e-08
8.57627e-06
2.89998e-08
8.58052e-06
2.80311e-08
8.58469e-06
2.6983e-08
8.5888e-06
2.58725e-08
8.59285e-06
2.47031e-08
8.59687e-06
2.3465e-08
8.60082e-06
2.21454e-08
2.07354e-08
8.60469e-06
1.04003e-05
4.00114e-09
1.04032e-05
1.11038e-08
1.04075e-05
1.66674e-08
1.04125e-05
2.05425e-08
1.04179e-05
2.30211e-08
1.04235e-05
2.44824e-08
1.04291e-05
2.51884e-08
1.04347e-05
2.53289e-08
1.04401e-05
2.50656e-08
1.04454e-05
2.45316e-08
1.04506e-05
2.38138e-08
1.04557e-05
2.29704e-08
1.04606e-05
2.20328e-08
1.04655e-05
2.1023e-08
1.04702e-05
1.9947e-08
1.04749e-05
1.88089e-08
1.04794e-05
1.76059e-08
1.63421e-08
1.04838e-05
1.26779e-05
2.89504e-09
1.2681e-05
8.03105e-09
1.26855e-05
1.21378e-08
1.26909e-05
1.50837e-08
1.26969e-05
1.70188e-08
1.27032e-05
1.81817e-08
1.27097e-05
1.87634e-08
1.27161e-05
1.89033e-08
1.27224e-05
1.8717e-08
1.27287e-05
1.82976e-08
1.27348e-05
1.77146e-08
1.27407e-05
1.70117e-08
1.27465e-05
1.62186e-08
1.27522e-05
1.53522e-08
1.27577e-05
1.44263e-08
1.27631e-05
1.34475e-08
1.27682e-05
1.24246e-08
1.1362e-08
1.27732e-05
1.54543e-05
1.73841e-09
1.54576e-05
4.7943e-09
1.54624e-05
7.28853e-09
1.54684e-05
9.11468e-09
1.54751e-05
1.03339e-08
1.54822e-05
1.10697e-08
1.54895e-05
1.14312e-08
1.54969e-05
1.15021e-08
1.55043e-05
1.13504e-08
1.55115e-05
1.10318e-08
1.55186e-05
1.05891e-08
1.55256e-05
1.00527e-08
1.55324e-05
9.44276e-09
1.55389e-05
8.77399e-09
1.55453e-05
8.05769e-09
1.55514e-05
7.30404e-09
1.55573e-05
6.52233e-09
5.71912e-09
1.5563e-05
1.88389e-05
4.8925e-10
1.88424e-05
1.26872e-09
1.88477e-05
1.94395e-09
1.88544e-05
2.44115e-09
1.8862e-05
2.76506e-09
1.88701e-05
2.94189e-09
1.88785e-05
2.99215e-09
1.88871e-05
2.93534e-09
1.88957e-05
2.78901e-09
1.89041e-05
2.56917e-09
1.89124e-05
2.28778e-09
1.89205e-05
1.9557e-09
1.89284e-05
1.58079e-09
1.8936e-05
1.17038e-09
1.89433e-05
7.30672e-10
1.89503e-05
2.68817e-10
1.8957e-05
-2.07786e-10
-6.95569e-10
1.89635e-05
2.29648e-05
-9.55925e-10
2.29689e-05
-2.83354e-09
2.29751e-05
-4.31354e-09
2.2983e-05
-5.41211e-09
2.29919e-05
-6.16186e-09
2.30015e-05
-6.65425e-09
2.30115e-05
-6.97365e-09
2.30216e-05
-7.17959e-09
2.30317e-05
-7.30596e-09
2.30416e-05
-7.38933e-09
2.30513e-05
-7.45142e-09
2.30608e-05
-7.51166e-09
2.307e-05
-7.57488e-09
2.30788e-05
-7.64851e-09
2.30872e-05
-7.73113e-09
2.30953e-05
-7.82557e-09
2.3103e-05
-7.92629e-09
-8.03698e-09
2.31104e-05
1.68118e-05
-2.09175e-09
1.6815e-05
-6.02504e-09
1.68199e-05
-9.18273e-09
1.68259e-05
-1.14667e-08
1.68327e-05
-1.29524e-08
1.68399e-05
-1.38651e-08
1.68474e-05
-1.43987e-08
1.68548e-05
-1.46518e-08
1.68622e-05
-1.47107e-08
1.68695e-05
-1.46407e-08
1.68765e-05
-1.45019e-08
1.68833e-05
-1.43226e-08
1.68899e-05
-1.41289e-08
1.68962e-05
-1.39282e-08
1.69021e-05
-1.37335e-08
1.69079e-05
-1.35441e-08
1.69133e-05
-1.33652e-08
-1.31951e-08
1.69185e-05
1.46357e-05
-3.18167e-09
1.46388e-05
-9.12977e-09
1.46435e-05
-1.39285e-08
1.46493e-05
-1.72593e-08
1.46556e-05
-1.93026e-08
1.46623e-05
-2.05117e-08
1.4669e-05
-2.11539e-08
1.46757e-05
-2.13712e-08
1.46823e-05
-2.12904e-08
1.46887e-05
-2.10313e-08
1.46949e-05
-2.06671e-08
1.47008e-05
-2.02455e-08
1.47065e-05
-1.97941e-08
1.47119e-05
-1.93343e-08
1.4717e-05
-1.88775e-08
1.47219e-05
-1.84323e-08
1.47265e-05
-1.79995e-08
-1.75849e-08
1.47309e-05
1.27412e-05
-4.20197e-09
1.27443e-05
-1.22719e-08
1.27491e-05
-1.87862e-08
1.27548e-05
-2.29451e-08
1.27609e-05
-2.53362e-08
1.27671e-05
-2.67336e-08
1.27733e-05
-2.74018e-08
1.27794e-05
-2.74898e-08
1.27853e-05
-2.72056e-08
1.2791e-05
-2.67143e-08
1.27965e-05
-2.61054e-08
1.28016e-05
-2.54322e-08
1.28066e-05
-2.47279e-08
1.28113e-05
-2.40206e-08
1.28157e-05
-2.33213e-08
1.28199e-05
-2.26424e-08
1.28239e-05
-2.19825e-08
-2.13484e-08
1.28276e-05
1.10918e-05
-5.05502e-09
1.1095e-05
-1.55059e-08
1.11002e-05
-2.39345e-08
1.11058e-05
-2.86034e-08
1.11116e-05
-3.11147e-08
1.11174e-05
-3.25992e-08
1.11232e-05
-3.31892e-08
1.11288e-05
-3.30672e-08
1.11341e-05
-3.25351e-08
1.11392e-05
-3.17898e-08
1.1144e-05
-3.09252e-08
1.11486e-05
-2.99957e-08
1.11529e-05
-2.90463e-08
1.1157e-05
-2.81008e-08
1.11608e-05
-2.71791e-08
1.11645e-05
-2.62842e-08
1.11679e-05
-2.54221e-08
-2.45922e-08
1.11711e-05
9.65583e-06
-5.67022e-09
9.65926e-06
-1.894e-08
9.66462e-06
-2.92987e-08
9.67014e-06
-3.41287e-08
9.67573e-06
-3.67091e-08
9.68133e-06
-3.82004e-08
9.68671e-06
-3.85693e-08
9.69178e-06
-3.81464e-08
9.69658e-06
-3.73337e-08
9.70111e-06
-3.63258e-08
9.70538e-06
-3.52019e-08
9.70941e-06
-3.40211e-08
9.71319e-06
-3.28296e-08
9.71674e-06
-3.16582e-08
9.72008e-06
-3.05205e-08
9.72322e-06
-2.94242e-08
9.72616e-06
-2.83696e-08
-2.73551e-08
9.72892e-06
8.40533e-06
-5.64763e-09
8.40965e-06
-2.32639e-08
8.4149e-06
-3.45498e-08
8.41994e-06
-3.91796e-08
8.42534e-06
-4.2105e-08
8.43078e-06
-4.36437e-08
8.4359e-06
-4.36939e-08
8.44064e-06
-4.28939e-08
8.44505e-06
-4.17456e-08
8.44915e-06
-4.04258e-08
8.45295e-06
-3.9004e-08
8.45647e-06
-3.75422e-08
8.45972e-06
-3.60892e-08
8.46274e-06
-3.46731e-08
8.46552e-06
-3.3309e-08
8.4681e-06
-3.20029e-08
8.47048e-06
-3.07549e-08
-2.95654e-08
8.47269e-06
7.31455e-06
-2.91556e-09
7.3212e-06
-2.99151e-08
7.32676e-06
-4.01152e-08
7.33173e-06
-4.41513e-08
7.33715e-06
-4.75264e-08
7.3425e-06
-4.89933e-08
7.3474e-06
-4.86038e-08
7.35185e-06
-4.73406e-08
7.35585e-06
-4.57581e-08
7.35944e-06
-4.40153e-08
7.36263e-06
-4.21938e-08
7.36545e-06
-4.03627e-08
7.36793e-06
-3.8578e-08
7.37012e-06
-3.68622e-08
7.37204e-06
-3.52302e-08
7.37372e-06
-3.36851e-08
7.37519e-06
-3.2226e-08
-3.08457e-08
7.37647e-06
6.36245e-06
4.69532e-09
6.3719e-06
-3.93636e-08
6.37934e-06
-4.75545e-08
6.38599e-06
-5.08076e-08
6.39229e-06
-5.38289e-08
6.39762e-06
-5.43294e-08
6.40194e-06
-5.29241e-08
6.40545e-06
-5.08482e-08
6.40827e-06
-4.85853e-08
6.41048e-06
-4.62278e-08
6.41214e-06
-4.38502e-08
6.4133e-06
-4.15331e-08
6.41405e-06
-3.93248e-08
6.41443e-06
-3.72443e-08
6.4145e-06
-3.53046e-08
6.41431e-06
-3.35017e-08
6.41392e-06
-3.18371e-08
-3.02883e-08
6.41337e-06
5.54121e-06
8.95401e-09
5.55033e-06
-4.84929e-08
5.55836e-06
-5.55813e-08
5.56607e-06
-5.85226e-08
5.57254e-06
-6.03066e-08
5.57688e-06
-5.86728e-08
5.57914e-06
-5.5186e-08
5.57972e-06
-5.14289e-08
5.57898e-06
-4.78538e-08
5.57722e-06
-4.44632e-08
5.57464e-06
-4.12769e-08
5.57144e-06
-3.83379e-08
5.56777e-06
-3.56537e-08
5.56374e-06
-3.32156e-08
5.55945e-06
-3.10207e-08
5.555e-06
-2.90519e-08
5.55047e-06
-2.73094e-08
-2.57459e-08
5.54593e-06
4.86004e-06
-2.34836e-08
4.86539e-06
-5.38395e-08
4.86524e-06
-5.54411e-08
4.86218e-06
-5.54615e-08
4.85702e-06
-5.51482e-08
4.84953e-06
-5.11866e-08
4.83984e-06
-4.5506e-08
4.82846e-06
-4.00535e-08
4.8159e-06
-3.52991e-08
4.80264e-06
-3.12034e-08
4.78906e-06
-2.76978e-08
4.77544e-06
-2.47194e-08
4.76197e-06
-2.21877e-08
4.74878e-06
-2.00325e-08
4.73597e-06
-1.82079e-08
4.72359e-06
-1.6679e-08
4.71176e-06
-1.54852e-08
-1.51449e-08
4.70116e-06
4.17919e-06
4.12535e-06
4.06991e-06
4.01445e-06
3.9593e-06
3.90811e-06
3.86261e-06
3.82255e-06
3.78725e-06
3.75605e-06
3.72835e-06
3.70363e-06
3.68144e-06
3.66141e-06
3.6432e-06
3.62652e-06
3.61104e-06
3.59589e-06
2.11989e-08
-2.13353e-08
4.51713e-08
-2.40828e-08
6.48536e-08
-1.98193e-08
7.87857e-08
-1.40001e-08
8.63402e-08
-7.66998e-09
8.76753e-08
-1.40829e-09
8.32005e-08
4.36226e-09
7.37442e-08
9.36107e-09
6.01536e-08
1.3478e-08
4.3328e-08
1.67142e-08
2.40778e-08
1.91401e-08
3.03861e-09
2.09353e-08
-1.97006e-08
2.26339e-08
-4.50263e-08
2.525e-08
-7.43964e-08
2.92212e-08
-1.03822e-07
2.93169e-08
-1.30546e-07
2.65031e-08
-1.6238e-07
3.17429e-08
-2.00992e-07
3.84214e-08
-2.46276e-07
4.52163e-08
-2.97642e-07
5.12034e-08
-3.53603e-07
5.59121e-08
-4.13453e-07
5.97114e-08
-4.75956e-07
6.24639e-08
-5.40393e-07
6.43056e-08
-6.06497e-07
6.60632e-08
-6.74224e-07
6.7591e-08
-7.42999e-07
6.87291e-08
-8.12524e-07
6.93914e-08
-8.82139e-07
6.95633e-08
-9.51532e-07
6.92536e-08
-1.0201e-06
6.85119e-08
-1.08762e-06
6.73845e-08
-1.15363e-06
6.59417e-08
-1.21801e-06
6.42407e-08
-1.28044e-06
6.23547e-08
-1.34091e-06
6.03354e-08
-1.39922e-06
5.82452e-08
-1.45546e-06
5.61207e-08
-1.50953e-06
5.40083e-08
-1.56156e-06
5.19284e-08
-1.61153e-06
4.9912e-08
-1.65959e-06
4.79664e-08
-1.70575e-06
4.6111e-08
-1.75018e-06
4.43436e-08
-1.79292e-06
4.26749e-08
-1.8341e-06
4.10968e-08
-1.87377e-06
3.9615e-08
-1.91207e-06
3.82192e-08
-1.94904e-06
3.69125e-08
-1.98481e-06
3.5683e-08
-2.0194e-06
3.45322e-08
-2.05294e-06
3.3449e-08
-2.08545e-06
3.24353e-08
-2.11702e-06
3.14804e-08
-2.1477e-06
3.05864e-08
-2.17755e-06
2.97451e-08
-2.20662e-06
2.89596e-08
-2.23496e-06
2.82229e-08
-2.26261e-06
2.75381e-08
-2.28963e-06
2.68997e-08
-2.31607e-06
2.63114e-08
-2.34195e-06
2.57701e-08
-2.36736e-06
2.52776e-08
-2.3923e-06
2.48333e-08
-2.41688e-06
2.44383e-08
-2.44107e-06
2.40944e-08
-2.465e-06
2.38015e-08
-2.48865e-06
2.35628e-08
-2.51215e-06
2.33757e-08
-2.53547e-06
2.32459e-08
-2.55876e-06
2.31695e-08
-2.58198e-06
2.31535e-08
-2.60529e-06
2.31892e-08
-2.62864e-06
2.32849e-08
-2.65222e-06
2.34289e-08
-2.67593e-06
2.36304e-08
-2.69996e-06
2.38788e-08
-2.72422e-06
2.41814e-08
-2.74889e-06
2.45163e-08
-2.77386e-06
2.48937e-08
-2.79931e-06
2.52932e-08
-2.82509e-06
2.57255e-08
-2.85139e-06
2.61589e-08
-2.87804e-06
2.66053e-08
-2.90518e-06
2.70336e-08
-2.93263e-06
2.74568e-08
-2.96047e-06
2.78504e-08
-2.98858e-06
2.82181e-08
-3.01693e-06
2.85529e-08
-3.04553e-06
2.8785e-08
-3.07426e-06
2.88966e-08
-3.10298e-06
2.8849e-08
-3.13141e-06
2.85862e-08
-3.15906e-06
2.77709e-08
-3.18577e-06
2.68405e-08
-3.21221e-06
2.65313e-08
-3.23748e-06
2.53543e-08
-3.26126e-06
2.38103e-08
-3.28337e-06
2.21143e-08
-3.30355e-06
2.01136e-08
-3.32141e-06
1.77026e-08
-3.33626e-06
1.46024e-08
-3.34787e-06
1.12293e-08
-3.35552e-06
7.24948e-09
-3.35954e-06
3.55447e-09
-3.35972e-06
-2.41283e-10
-3.35554e-06
-4.61172e-09
-3.34724e-06
-8.64546e-09
-3.33479e-06
-1.28042e-08
-3.3179e-06
-1.71493e-08
-3.29611e-06
-2.20699e-08
-3.26904e-06
-2.7243e-08
-3.23734e-06
-3.1894e-08
-3.20024e-06
-3.71871e-08
-3.15732e-06
-4.30402e-08
-3.10895e-06
-4.83839e-08
-3.05501e-06
-5.39416e-08
-2.99499e-06
-5.99093e-08
-2.92921e-06
-6.56988e-08
-2.85778e-06
-7.13784e-08
-2.78062e-06
-7.7244e-08
-2.69772e-06
-8.29698e-08
-2.6092e-06
-8.86019e-08
-2.51512e-06
-9.40085e-08
-2.41578e-06
-9.92227e-08
-2.31136e-06
-1.04153e-07
-2.20224e-06
-1.08814e-07
-2.08871e-06
-1.13125e-07
-1.97121e-06
-1.17088e-07
-1.85009e-06
-1.2064e-07
-1.72583e-06
-1.23778e-07
-1.59886e-06
-1.26462e-07
-1.46967e-06
-1.28688e-07
-1.33872e-06
-1.30445e-07
-1.20649e-06
-1.31745e-07
-1.07342e-06
-1.32601e-07
-9.39974e-07
-1.33032e-07
-8.06564e-07
-1.33068e-07
-6.73587e-07
-1.32738e-07
-5.41371e-07
-1.32052e-07
-4.1032e-07
-1.30982e-07
-2.8046e-07
-1.29852e-07
-1.5127e-07
-1.29259e-07
-2.17751e-08
-1.29606e-07
1.07684e-07
-1.29611e-07
2.34946e-07
-1.27425e-07
3.58563e-07
-1.23798e-07
4.78022e-07
-1.19639e-07
5.93059e-07
-1.15224e-07
7.03576e-07
-1.10695e-07
8.09511e-07
-1.06116e-07
9.10886e-07
-1.01543e-07
1.00775e-06
-9.70305e-08
1.1002e-06
-9.26045e-08
1.18831e-06
-8.82587e-08
1.27223e-06
-8.40462e-08
1.35209e-06
-7.99902e-08
1.42804e-06
-7.60579e-08
1.50018e-06
-7.22473e-08
1.56867e-06
-6.85738e-08
1.63364e-06
-6.50519e-08
1.69525e-06
-6.16811e-08
1.75363e-06
-5.84363e-08
1.80889e-06
-5.53091e-08
1.86115e-06
-5.23005e-08
1.91052e-06
-4.94047e-08
1.9571e-06
-4.66005e-08
2.00095e-06
-4.38801e-08
2.04215e-06
-4.1211e-08
2.08068e-06
-3.85472e-08
2.11649e-06
-3.58151e-08
2.14938e-06
-3.29128e-08
2.17903e-06
-2.9656e-08
2.20471e-06
-2.56967e-08
2.22511e-06
-2.04128e-08
2.2364e-06
-1.13244e-08
2.22941e-06
6.96596e-09
2.18216e-06
4.72186e-08
1.15888e-07
2.06627e-06
2.12061e-08
-4.26556e-08
3.496e-08
-3.79211e-08
4.18231e-08
-2.67608e-08
4.37009e-08
-1.59233e-08
4.13725e-08
-5.40316e-09
3.51791e-08
4.73807e-09
2.51405e-08
1.4339e-08
1.11772e-08
2.32658e-08
-6.85274e-09
3.14432e-08
-2.91107e-08
3.89062e-08
-5.5718e-08
4.56834e-08
-8.6616e-08
5.17745e-08
-1.21751e-07
5.77106e-08
-1.60718e-07
6.41699e-08
-2.02704e-07
7.11499e-08
-2.5081e-07
7.73787e-08
-3.06882e-07
8.25186e-08
-3.6426e-07
8.90818e-08
-4.22565e-07
9.66746e-08
-4.82007e-07
1.04625e-07
-5.43006e-07
1.12153e-07
-6.05755e-07
1.1863e-07
-6.7007e-07
1.2398e-07
-7.35872e-07
1.28238e-07
-8.02921e-07
1.31307e-07
-8.70227e-07
1.33337e-07
-9.3717e-07
1.34482e-07
-1.00324e-06
1.34765e-07
-1.0681e-06
1.34204e-07
-1.13144e-06
1.32859e-07
-1.19306e-06
1.30816e-07
-1.25277e-06
1.28181e-07
-1.3105e-06
1.25065e-07
-1.36619e-06
1.2158e-07
-1.41983e-06
1.17827e-07
-1.47143e-06
1.13905e-07
-1.52104e-06
1.09897e-07
-1.56872e-06
1.05878e-07
-1.61455e-06
1.01903e-07
-1.65861e-06
9.80212e-08
-1.70099e-06
9.42643e-08
-1.74177e-06
9.06579e-08
-1.78106e-06
8.72155e-08
-1.81893e-06
8.39474e-08
-1.85549e-06
8.08548e-08
-1.89079e-06
7.79385e-08
-1.92492e-06
7.51925e-08
-1.95796e-06
7.26125e-08
-1.98997e-06
7.01895e-08
-2.02101e-06
6.79169e-08
-2.05116e-06
6.57837e-08
-2.08045e-06
6.37834e-08
-2.10895e-06
6.19057e-08
-2.13671e-06
6.01454e-08
-2.16377e-06
5.84932e-08
-2.19018e-06
5.69456e-08
-2.21599e-06
5.54958e-08
-2.24124e-06
5.41425e-08
-2.26596e-06
5.28803e-08
-2.29019e-06
5.17089e-08
-2.31399e-06
5.06253e-08
-2.33737e-06
4.96309e-08
-2.3604e-06
4.87239e-08
-2.3831e-06
4.79063e-08
-2.40551e-06
4.71774e-08
-2.42768e-06
4.65401e-08
-2.44964e-06
4.59946e-08
-2.47145e-06
4.55437e-08
-2.49314e-06
4.5188e-08
-2.51476e-06
4.49291e-08
-2.53633e-06
4.47679e-08
-2.55792e-06
4.47039e-08
-2.57956e-06
4.47368e-08
-2.60129e-06
4.48636e-08
-2.62314e-06
4.50808e-08
-2.64516e-06
4.53827e-08
-2.66736e-06
4.57678e-08
-2.68978e-06
4.6227e-08
-2.71241e-06
4.67525e-08
-2.7353e-06
4.73291e-08
-2.75841e-06
4.7949e-08
-2.78178e-06
4.85933e-08
-2.80536e-06
4.92487e-08
-2.82916e-06
4.98897e-08
-2.8531e-06
5.05018e-08
-2.87717e-06
5.10577e-08
-2.90127e-06
5.15401e-08
-2.92534e-06
5.19194e-08
-2.94922e-06
5.21893e-08
-2.97285e-06
5.22836e-08
-2.99611e-06
5.21569e-08
-3.01887e-06
5.17463e-08
-3.04093e-06
5.09934e-08
-3.06212e-06
4.98553e-08
-3.08253e-06
4.82489e-08
-3.10196e-06
4.63363e-08
-3.11965e-06
4.42626e-08
-3.13588e-06
4.16227e-08
-3.15042e-06
3.83521e-08
-3.16297e-06
3.46414e-08
-3.17335e-06
3.04132e-08
-3.18139e-06
2.56231e-08
-3.18723e-06
2.02196e-08
-3.19061e-06
1.43467e-08
-3.19167e-06
7.99749e-09
-3.18981e-06
1.39981e-09
-3.18473e-06
-5.64045e-09
-3.17623e-06
-1.3367e-08
-3.16372e-06
-2.14207e-08
-3.14679e-06
-2.9939e-08
-3.12522e-06
-3.89135e-08
-3.099e-06
-4.84449e-08
-3.06798e-06
-5.84032e-08
-3.03141e-06
-6.85604e-08
-2.98948e-06
-7.92102e-08
-2.94228e-06
-9.02839e-08
-2.88922e-06
-1.01477e-07
-2.83021e-06
-1.12915e-07
-2.76553e-06
-1.24542e-07
-2.69494e-06
-1.36223e-07
-2.61838e-06
-1.47933e-07
-2.53602e-06
-1.59656e-07
-2.44782e-06
-1.71245e-07
-2.35385e-06
-1.82604e-07
-2.25426e-06
-1.93581e-07
-2.14927e-06
-2.04131e-07
-2.03914e-06
-2.14144e-07
-1.9242e-06
-2.23567e-07
-1.80481e-06
-2.32296e-07
-1.68138e-06
-2.40277e-07
-1.55433e-06
-2.47423e-07
-1.42415e-06
-2.53693e-07
-1.29132e-06
-2.59027e-07
-1.15633e-06
-2.6341e-07
-1.01969e-06
-2.66823e-07
-8.81908e-07
-2.69287e-07
-7.43459e-07
-2.7082e-07
-6.04833e-07
-2.71472e-07
-4.66459e-07
-2.71294e-07
-3.28734e-07
-2.70373e-07
-1.91822e-07
-2.68905e-07
-5.57053e-08
-2.67087e-07
7.92315e-08
-2.64795e-07
2.11879e-07
-2.61952e-07
3.40659e-07
-2.58441e-07
4.64806e-07
-2.5384e-07
5.8504e-07
-2.47741e-07
7.01677e-07
-2.40536e-07
8.14598e-07
-2.32656e-07
9.23655e-07
-2.2439e-07
1.02875e-06
-2.15894e-07
1.12983e-06
-2.07302e-07
1.22687e-06
-1.98689e-07
1.31989e-06
-1.9016e-07
1.40894e-06
-1.81751e-07
1.49408e-06
-1.73501e-07
1.5754e-06
-1.65448e-07
1.65296e-06
-1.5764e-07
1.72688e-06
-1.50056e-07
1.79727e-06
-1.4272e-07
1.86427e-06
-1.35635e-07
1.92798e-06
-1.28827e-07
1.98853e-06
-1.22284e-07
2.04603e-06
-1.15985e-07
2.10059e-06
-1.09909e-07
2.15232e-06
-1.04062e-07
2.2013e-06
-9.842e-08
2.24764e-06
-9.29601e-08
2.29139e-06
-8.76512e-08
2.3326e-06
-8.2439e-08
2.37126e-06
-7.72274e-08
2.40732e-06
-7.18864e-08
2.4406e-06
-6.6207e-08
2.47079e-06
-5.98586e-08
2.49731e-06
-5.22217e-08
2.51909e-06
-4.22143e-08
2.53498e-06
-2.72355e-08
2.54434e-06
-2.41555e-09
2.54578e-06
4.57698e-08
1.37544e-07
2.52412e-06
9.09765e-09
-5.1847e-08
1.00724e-08
-3.89607e-08
6.51103e-09
-2.3257e-08
-6.51009e-10
-8.79452e-09
-1.10098e-08
4.91235e-09
-2.43909e-08
1.80862e-08
-4.08753e-08
3.07831e-08
-6.06637e-08
4.30167e-08
-8.40507e-08
5.47894e-08
-1.11291e-07
6.61073e-08
-1.42569e-07
7.6923e-08
-1.78066e-07
8.72372e-08
-2.17672e-07
9.72821e-08
-2.60844e-07
1.07313e-07
-3.07053e-07
1.17328e-07
-3.56686e-07
1.26988e-07
-4.10238e-07
1.3604e-07
-4.66098e-07
1.4492e-07
-5.23111e-07
1.53658e-07
-5.80528e-07
1.62022e-07
-6.38105e-07
1.69701e-07
-6.95935e-07
1.7644e-07
-7.54022e-07
1.82039e-07
-8.12122e-07
1.86317e-07
-8.70074e-07
1.89228e-07
-9.27573e-07
1.90813e-07
-9.84287e-07
1.91164e-07
-1.03993e-06
1.90379e-07
-1.09433e-06
1.88573e-07
-1.14736e-06
1.8587e-07
-1.19898e-06
1.82402e-07
-1.24913e-06
1.78304e-07
-1.29781e-06
1.73711e-07
-1.34501e-06
1.68749e-07
-1.39075e-06
1.63537e-07
-1.43505e-06
1.58178e-07
-1.47795e-06
1.52764e-07
-1.51947e-06
1.47372e-07
-1.55966e-06
1.42064e-07
-1.59856e-06
1.3689e-07
-1.6362e-06
1.31884e-07
-1.67264e-06
1.27072e-07
-1.70792e-06
1.22471e-07
-1.74209e-06
1.18091e-07
-1.77519e-06
1.13933e-07
-1.80728e-06
1.09998e-07
-1.83839e-06
1.06281e-07
-1.86858e-06
1.02775e-07
-1.89789e-06
9.94707e-08
-1.92636e-06
9.63602e-08
-1.95403e-06
9.34327e-08
-1.98096e-06
9.06785e-08
-2.00717e-06
8.80879e-08
-2.03271e-06
8.56525e-08
-2.05761e-06
8.33637e-08
-2.08192e-06
8.12153e-08
-2.10566e-06
7.92012e-08
-2.12887e-06
7.73174e-08
-2.1516e-06
7.55599e-08
-2.17386e-06
7.39267e-08
-2.19569e-06
7.24161e-08
-2.21713e-06
7.1028e-08
-2.23821e-06
6.97624e-08
-2.25897e-06
6.86205e-08
-2.27944e-06
6.76033e-08
-2.29966e-06
6.6713e-08
-2.31966e-06
6.59512e-08
-2.33948e-06
6.53202e-08
-2.35915e-06
6.48214e-08
-2.37872e-06
6.44561e-08
-2.39821e-06
6.42245e-08
-2.41767e-06
6.41263e-08
-2.43713e-06
6.41594e-08
-2.45662e-06
6.43192e-08
-2.47618e-06
6.46006e-08
-2.49583e-06
6.49964e-08
-2.5156e-06
6.54986e-08
-2.53551e-06
6.6096e-08
-2.55557e-06
6.67744e-08
-2.5758e-06
6.75163e-08
-2.5962e-06
6.83037e-08
-2.61676e-06
6.91136e-08
-2.63747e-06
6.9921e-08
-2.65832e-06
7.0696e-08
-2.67926e-06
7.14102e-08
-2.70026e-06
7.20285e-08
-2.72126e-06
7.25168e-08
-2.74217e-06
7.28421e-08
-2.76291e-06
7.29589e-08
-2.78338e-06
7.28248e-08
-2.80351e-06
7.23565e-08
-2.82321e-06
7.14879e-08
-2.84234e-06
7.01711e-08
-2.8608e-06
6.83421e-08
-2.87848e-06
6.59768e-08
-2.89522e-06
6.30823e-08
-2.91063e-06
5.96956e-08
-2.92468e-06
5.56678e-08
-2.93724e-06
5.08956e-08
-2.9481e-06
4.54508e-08
-2.95707e-06
3.93012e-08
-2.964e-06
3.242e-08
-2.96876e-06
2.47843e-08
-2.97106e-06
1.64364e-08
-2.97068e-06
7.36567e-09
-2.96714e-06
-2.36751e-09
-2.96018e-06
-1.28291e-08
-2.94964e-06
-2.4097e-08
-2.93517e-06
-3.608e-08
-2.91644e-06
-4.88065e-08
-2.89325e-06
-6.22593e-08
-2.86537e-06
-7.64261e-08
-2.83261e-06
-9.1269e-08
-2.79458e-06
-1.0665e-07
-2.75125e-06
-1.22607e-07
-2.7025e-06
-1.39062e-07
-2.64808e-06
-1.55917e-07
-2.58786e-06
-1.73101e-07
-2.52186e-06
-1.90509e-07
-2.44996e-06
-2.08073e-07
-2.3722e-06
-2.25714e-07
-2.28859e-06
-2.43292e-07
-2.19922e-06
-2.60687e-07
-2.10412e-06
-2.77718e-07
-2.00347e-06
-2.94216e-07
-1.89749e-06
-3.10043e-07
-1.78647e-06
-3.25072e-07
-1.67073e-06
-3.39171e-07
-1.55065e-06
-3.52218e-07
-1.42665e-06
-3.64094e-07
-1.2992e-06
-3.74696e-07
-1.16876e-06
-3.83935e-07
-1.03585e-06
-3.91746e-07
-9.00983e-07
-3.98089e-07
-7.64674e-07
-4.02952e-07
-6.27435e-07
-4.06353e-07
-4.89764e-07
-4.08338e-07
-3.52135e-07
-4.08966e-07
-2.14957e-07
-4.08372e-07
-7.85147e-08
-4.06734e-07
5.67584e-08
-4.04123e-07
1.90163e-07
-4.00439e-07
3.21012e-07
-3.95614e-07
4.48762e-07
-3.89673e-07
5.72892e-07
-3.82561e-07
6.93153e-07
-3.74091e-07
8.09669e-07
-3.64263e-07
9.22496e-07
-3.53364e-07
1.03155e-06
-3.41725e-07
1.13676e-06
-3.29604e-07
1.23805e-06
-3.17199e-07
1.3354e-06
-3.0466e-07
1.42881e-06
-2.92109e-07
1.51829e-06
-2.79656e-07
1.60391e-06
-2.6738e-07
1.68573e-06
-2.55329e-07
1.76382e-06
-2.43554e-07
1.83829e-06
-2.32113e-07
1.90925e-06
-2.21027e-07
1.97684e-06
-2.10304e-07
2.04115e-06
-1.99952e-07
2.10231e-06
-1.89985e-07
2.16042e-06
-1.80404e-07
2.21562e-06
-1.71179e-07
2.26801e-06
-1.62292e-07
2.31768e-06
-1.5373e-07
2.36474e-06
-1.45471e-07
2.40927e-06
-1.37478e-07
2.45133e-06
-1.29707e-07
2.49097e-06
-1.22069e-07
2.52819e-06
-1.14437e-07
2.56293e-06
-1.06619e-07
2.59506e-06
-9.83267e-08
2.62431e-06
-8.91025e-08
2.65025e-06
-7.81549e-08
2.67216e-06
-6.41233e-08
2.68918e-06
-4.42618e-08
2.70061e-06
-1.38432e-08
2.70834e-06
3.80421e-08
1.30134e-07
2.71576e-06
-4.8096e-09
-4.71191e-08
-1.4933e-08
-2.88898e-08
-2.73327e-08
-1.09015e-08
-4.1949e-08
5.79449e-09
-5.87931e-08
2.17246e-08
-7.79281e-08
3.7197e-08
-9.95166e-08
5.23422e-08
-1.23732e-07
6.72063e-08
-1.50761e-07
8.17912e-08
-1.80745e-07
9.60656e-08
-2.1382e-07
1.09972e-07
-2.5008e-07
1.23475e-07
-2.89422e-07
1.366e-07
-3.31507e-07
1.49379e-07
-3.75966e-07
1.61764e-07
-4.22597e-07
1.73603e-07
-4.71321e-07
1.84743e-07
-5.21583e-07
1.95166e-07
-5.72767e-07
2.0482e-07
-6.24342e-07
2.13581e-07
-6.75954e-07
2.21291e-07
-7.27329e-07
2.27799e-07
-7.78294e-07
2.32981e-07
-8.28732e-07
2.36736e-07
-8.78558e-07
2.39029e-07
-9.27662e-07
2.39897e-07
-9.75952e-07
2.39428e-07
-1.02333e-06
2.37738e-07
-1.06975e-06
2.34966e-07
-1.11516e-06
2.31256e-07
-1.15954e-06
2.26756e-07
-1.20287e-06
2.21612e-07
-1.24514e-06
2.15963e-07
-1.28636e-06
2.09941e-07
-1.32651e-06
2.03668e-07
-1.36561e-06
1.97253e-07
-1.40365e-06
1.90789e-07
-1.44065e-06
1.84354e-07
-1.47662e-06
1.78013e-07
-1.51157e-06
1.71818e-07
-1.54551e-06
1.65806e-07
-1.57847e-06
1.60008e-07
-1.61046e-06
1.54442e-07
-1.6415e-06
1.4912e-07
-1.67164e-06
1.44048e-07
-1.70088e-06
1.39226e-07
-1.72928e-06
1.34652e-07
-1.75684e-06
1.30321e-07
-1.78361e-06
1.26223e-07
-1.80963e-06
1.2235e-07
-1.83491e-06
1.18693e-07
-1.85949e-06
1.1524e-07
-1.88341e-06
1.11983e-07
-1.9067e-06
1.08912e-07
-1.92938e-06
1.06019e-07
-1.95149e-06
1.03296e-07
-1.97305e-06
1.00738e-07
-1.99411e-06
9.83389e-08
-2.01467e-06
9.60964e-08
-2.03479e-06
9.40078e-08
-2.05447e-06
9.20717e-08
-2.07377e-06
9.02882e-08
-2.0927e-06
8.86581e-08
-2.11129e-06
8.71827e-08
-2.12958e-06
8.58641e-08
-2.14761e-06
8.47048e-08
-2.1654e-06
8.37074e-08
-2.18299e-06
8.28743e-08
-2.2004e-06
8.22076e-08
-2.21769e-06
8.17086e-08
-2.23487e-06
8.13777e-08
-2.25199e-06
8.12137e-08
-2.26907e-06
8.12138e-08
-2.28615e-06
8.13734e-08
-2.30326e-06
8.16849e-08
-2.32043e-06
8.21391e-08
-2.33769e-06
8.27248e-08
-2.35505e-06
8.34269e-08
-2.37253e-06
8.42272e-08
-2.39015e-06
8.51036e-08
-2.40791e-06
8.60318e-08
-2.42581e-06
8.69823e-08
-2.44384e-06
8.79227e-08
-2.46199e-06
8.88162e-08
-2.48023e-06
8.96237e-08
-2.49853e-06
9.03022e-08
-2.51683e-06
9.08065e-08
-2.53508e-06
9.10864e-08
-2.55318e-06
9.10983e-08
-2.57108e-06
9.07571e-08
-2.5887e-06
9.00113e-08
-2.60595e-06
8.87684e-08
-2.62274e-06
8.69692e-08
-2.63893e-06
8.45489e-08
-2.65441e-06
8.14662e-08
-2.66902e-06
7.76877e-08
-2.68253e-06
7.31969e-08
-2.6948e-06
6.79108e-08
-2.7057e-06
6.17499e-08
-2.71503e-06
5.4712e-08
-2.72259e-06
4.67637e-08
-2.7282e-06
3.78756e-08
-2.73161e-06
2.80129e-08
-2.73257e-06
1.71786e-08
-2.73077e-06
5.35195e-09
-2.72589e-06
-7.44241e-09
-2.71767e-06
-2.1234e-08
-2.70589e-06
-3.60427e-08
-2.69026e-06
-5.18621e-08
-2.67052e-06
-6.86731e-08
-2.64642e-06
-8.64669e-08
-2.61774e-06
-1.05198e-07
-2.58425e-06
-1.24835e-07
-2.54571e-06
-1.45247e-07
-2.50197e-06
-1.66396e-07
-2.45286e-06
-1.88191e-07
-2.39822e-06
-2.10567e-07
-2.3379e-06
-2.33387e-07
-2.27184e-06
-2.56537e-07
-2.19999e-06
-2.79888e-07
-2.1224e-06