/*--------------------------------*- C++ -*----------------------------------*\
  =========                 |
  \\      /  F ield         | OpenFOAM: The Open Source CFD Toolbox
   \\    /   O peration     | Website:  https://openfoam.org
    \\  /    A nd           | Version:  11
     \\/     M anipulation  |
\*---------------------------------------------------------------------------*/
FoamFile
{
    format      ascii;
    class       volScalarField::Internal;
    location    "100";
    object      tmp<kEpsilon:G>;
}
// * * * * * * * * * * * * * * * * * * * * * * * * * * * * * * * * * * * * * //

dimensions      [0 2 -3 0 0 0 0];

value           nonuniform List<scalar> 
12225
(
0
0
0
0
0
0
0
0
0
0
0
0
0
0
0
0
0
0
947.141
499.212
262.494
277.652
380.029
495.5
605.259
716.49
803.084
890.981
951.718
1013.3
1052.81
1093.95
1124.93
1151.55
1217.79
1190.49
86.0752
123.047
55.4803
17.201
5.16932
4.38195
8.78322
16.6729
26.601
38.3998
50.9312
64.1695
77.7618
90.7368
105.121
116.578
134.802
139.141
5.16787
1.72386
0.642621
0.703816
0.467337
0.186596
0.0283448
0.191866
0.796918
1.89641
3.47851
5.48967
7.97843
10.6846
14.0634
17.3608
21.963
25.5122
0.22922
0.132241
0.146864
0.311073
0.421427
0.399934
0.281907
0.145726
0.0500642
0.0209352
0.0768743
0.228661
0.493618
0.863833
1.40113
2.04236
2.9234
3.74507
0.178498
0.187237
0.262598
0.315947
0.316796
0.309715
0.280208
0.2274
0.168868
0.112025
0.0640781
0.0306021
0.0185839
0.0348073
0.0905585
0.192206
0.348575
0.537109
0.127574
0.209354
0.228144
0.208872
0.206696
0.222945
0.228533
0.214717
0.192157
0.164693
0.134916
0.104099
0.0762569
0.0553797
0.047415
0.0621219
0.105988
0.184227
0.0980578
0.14736
0.157354
0.153659
0.162597
0.181025
0.19098
0.187915
0.179067
0.167065
0.152537
0.135607
0.118727
0.104712
0.0984732
0.107748
0.140419
0.199106
0.0746211
0.103824
0.120332
0.127482
0.137655
0.151666
0.160649
0.161546
0.158513
0.153723
0.147391
0.139812
0.132534
0.128121
0.13043
0.14494
0.177632
0.227071
0.0566463
0.0772104
0.096021
0.106497
0.115919
0.12732
0.135903
0.139034
0.13903
0.137861
0.136012
0.133853
0.132769
0.134758
0.142804
0.160067
0.190436
0.229756
0.0428843
0.0583436
0.0762839
0.0880394
0.0975051
0.107688
0.115975
0.120335
0.122108
0.122998
0.123716
0.124736
0.127188
0.132591
0.142967
0.159909
0.185427
0.214967
0.032932
0.0452601
0.061687
0.0740552
0.0836975
0.0931165
0.101036
0.106011
0.108849
0.110955
0.113118
0.115839
0.120003
0.126706
0.137224
0.152226
0.172644
0.194373
0.0250173
0.034988
0.0498033
0.0623981
0.0722398
0.0812054
0.0888729
0.0942823
0.0979033
0.100846
0.103886
0.107517
0.112393
0.119238
0.128785
0.141199
0.156843
0.172376
0.0180048
0.026004
0.0390118
0.0512766
0.0612131
0.0699065
0.0773949
0.083146
0.0874182
0.091017
0.0946214
0.0986936
0.103669
0.109962
0.117903
0.127376
0.138494
0.148711
0.012028
0.0185227
0.0298157
0.0413831
0.0512009
0.0596673
0.0669904
0.0729365
0.0776535
0.0816754
0.0855366
0.0896154
0.0941976
0.0994746
0.105523
0.112136
0.119363
0.125419
0.00718565
0.012549
0.0223062
0.0329753
0.0424716
0.050693
0.057817
0.0637744
0.0686595
0.0728128
0.0766018
0.0803047
0.0841207
0.0881329
0.0923114
0.0964588
0.100635
0.103743
0.0035663
0.00811888
0.0166206
0.0263748
0.0354125
0.0433276
0.0501857
0.0559667
0.0607372
0.0647214
0.0681529
0.0712226
0.0740822
0.0768008
0.0793432
0.0815727
0.0835371
0.0847178
0.00128976
0.00532677
0.0129399
0.0219327
0.0304571
0.0379619
0.0444249
0.0498253
0.0542059
0.057732
0.0605718
0.0628599
0.0647262
0.0662653
0.0674817
0.06832
0.0687722
0.068791
0.000662342
0.00451796
0.0117824
0.0204298
0.0285936
0.0356809
0.0416695
0.0465365
0.0503106
0.0531416
0.055202
0.0566235
0.0575366
0.0580551
0.058225
0.0580652
0.0574922
0.0568694
0.00196901
0.00609129
0.0138163
0.0227658
0.0308335
0.0375877
0.0431608
0.047521
0.050664
0.0527637
0.0540518
0.0546959
0.0548428
0.0546107
0.0540594
0.0532468
0.052042
0.0510454
0.00461897
0.00941731
0.0182775
0.0278878
0.035832
0.0421715
0.0473333
0.051227
0.0537791
0.0552354
0.0558904
0.0559478
0.0555399
0.0547899
0.053752
0.0525271
0.0509476
0.0497494
0.00859153
0.0148527
0.0254159
0.0356192
0.0434173
0.0494552
0.0541918
0.0573872
0.0590896
0.0597807
0.0598346
0.0594049
0.0585686
0.0574273
0.0560414
0.0545294
0.0527067
0.0513777
0.0138543
0.023896
0.0363644
0.0448584
0.0515717
0.0581706
0.063529
0.0663151
0.0669569
0.0666134
0.0658599
0.0647653
0.0633482
0.0616951
0.0598633
0.0579774
0.0558351
0.0542126
0.0213177
0.0421869
0.0595608
0.0610565
0.0605508
0.0648303
0.0709805
0.0749489
0.0762484
0.0762053
0.0753557
0.0737231
0.0713809
0.0685772
0.0654446
0.062213
0.0586732
0.0557131
0.0430415
0.0753875
0.0940758
0.105677
0.098367
0.0915153
0.0890557
0.0878339
0.0863244
0.0844298
0.0813814
0.0767616
0.0707342
0.0639407
0.0567965
0.0498668
0.0431785
0.0376238
0.0799174
0.213213
0.0681924
0.0796613
0.168965
0.216698
0.216031
0.191065
0.159764
0.128964
0.0996491
0.0731289
0.051087
0.0352704
0.0267726
0.0264192
0.0342407
0.0502232
0.667754
0.127119
0.315309
0.504771
0.372424
0.294926
0.228955
0.141158
0.0602002
0.0115419
0.0108559
0.0689483
0.190622
0.377276
0.62395
0.928702
1.27765
1.66817
32.2321
70.906
43.2341
18.2653
7.06986
2.67377
1.11649
1.01117
1.82082
3.29071
5.26521
7.64398
10.2863
13.1703
16.1447
19.2426
22.2629
25.3093
455.616
257.632
100.992
70.5527
91.62
128.042
167.923
205.947
241.077
273.802
302.917
329.575
352.886
374.286
392.829
410.307
425.707
440.792
0
0
0
0
0
0
0
0
0
0
0
0
0
0
0
0
0
0
0
0
0
0
0
0
0
0
0
0
0
0
0
0
0
0
0
0
0
0
0
5.02803
6.50386
8.10564
9.96811
12.0736
14.4554
17.1141
20.0541
23.2626
26.732
30.4388
34.3691
38.4934
42.7952
47.2436
51.8242
56.5078
61.2841
66.1278
71.0334
75.9799
80.9666
85.9764
91.0118
96.0581
101.12
106.186
111.26
116.334
121.412
126.487
131.564
136.635
141.705
146.768
151.828
156.879
161.924
166.958
171.985
177.002
182.009
187.006
191.992
196.971
201.938
206.9
211.852
216.805
221.751
226.708
231.668
236.652
241.649
246.689
251.755
256.881
262.051
267.303
272.616
278.031
283.525
289.145
294.856
300.708
306.661
312.759
318.958
325.279
331.683
338.078
344.294
349.961
353.759
360.071
369.742
374.152
383.412
387.545
396.313
399.885
405.139
410.883
415.555
423.747
426.401
428.016
432.056
432.134
433.077
431.414
430.66
431.222
426.833
423.401
421
414.41
407.111
400.816
391.176
381.138
369.728
357.246
343.732
329.264
313.905
297.747
280.865
263.382
245.411
227.083
208.528
189.88
171.223
152.713
134.481
116.643
99.3067
82.5695
66.5085
51.2355
36.8508
23.5923
12.2789
9.33023
18.2479
28.9906
39.4786
49.3719
58.5886
67.1138
74.9637
82.1302
88.644
94.5846
99.9785
104.832
109.184
113.081
116.573
119.702
122.497
124.982
127.193
129.156
130.895
132.431
133.784
134.969
135.997
136.867
137.588
138.097
138.473
138.336
138.211
136.196
134.477
121.519
0
0.151321
0.0890147
0.0127539
0.0194712
0.160471
0.440582
0.860911
1.40697
2.05772
2.81928
3.62904
4.35712
4.85002
5.29971
5.96643
7.63936
8.99529
10.1107
11.2969
12.7769
14.3661
15.5854
16.5871
17.4022
17.9025
18.1311
18.1127
17.8685
17.4187
16.7915
16.0221
15.1485
14.2073
13.2326
12.2538
11.2959
10.3779
9.51421
8.71333
7.98062
7.31729
6.72284
6.19456
5.72963
5.32362
4.97252
4.67155
4.41682
4.20409
4.03007
3.89108
3.78432
3.70674
3.65624
3.63033
3.62729
3.64505
3.68247
3.73795
3.81052
3.89884
4.00224
4.11975
4.25088
4.39491
4.55146
4.72011
4.90074
5.09317
5.29731
5.51322
5.74092
5.98114
6.23453
6.50189
6.78337
7.07964
7.39165
7.72157
8.07019
8.43925
8.82999
9.24561
9.68884
10.1639
10.6733
11.2206
11.8098
12.449
13.1537
13.9312
14.7918
15.7518
16.8225
17.9313
19.0215
20.2762
21.7975
23.0936
24.7926
26.2218
28.0664
29.5196
31.3448
32.7096
34.3301
35.6952
37.3974
39.2025
41.1457
43.2528
45.4882
47.9886
50.6175
53.3821
56.7106
59.9469
63.4209
67.2092
71.038
75.1165
79.432
83.757
88.1241
92.4657
96.7406
100.9
104.879
108.617
112.068
115.179
117.911
120.235
122.134
123.583
124.578
125.125
125.246
124.999
124.497
123.701
122.333
120.441
117.304
112.406
106.792
101.097
95.5008
90.1556
85.1285
80.4423
76.1032
72.0915
68.3983
65.0117
61.9318
59.1154
56.522
54.1488
51.9828
50.0093
48.2018
46.5457
45.0328
43.6518
42.3901
41.2402
40.1934
39.2417
38.3789
37.6016
36.9046
36.3142
35.829
35.6468
35.8892
37.8922
42.6961
63.2615
0
0.0735486
0.15544
0.213676
0.421403
0.789639
1.32473
2.0405
2.93938
4.01111
5.25008
6.63452
8.05631
9.38176
10.6674
12.0188
13.6013
14.9244
15.9315
16.6984
17.4214
18.1465
18.7949
19.2016
19.3946
19.403
19.2206
18.8941
18.4627
17.9708
17.4543
16.9421
16.4574
16.0167
15.6314
15.3086
15.0526
14.8636
14.7413
14.6827
14.6855
14.7461
14.8616
15.0286
15.2446
15.5066
15.8127
16.1606
16.5488
16.9754
17.4398
17.9409
18.4781
19.0509
19.6594
20.3034
20.9832
21.6989
22.4512
23.2407
24.0684
24.9349
25.8414
26.789
27.779
28.8127
29.8915
31.0165
32.1889
33.41
34.681
36.0032
37.3769
38.8029
40.2826
41.8167
43.4041
45.0428
46.7315
48.4698
50.2555
52.0853
53.9557
55.8631
57.803
59.7703
61.761
63.7619
65.7573
67.7316
69.6805
71.5946
73.4549
75.2377
77.0035
78.8
80.3931
81.8023
83.2223
84.4044
85.6824
86.6444
87.8491
88.9326
90.4415
91.9279
93.8229
95.7753
98.2007
100.725
103.378
106.258
109.543
113.044
116.695
120.834
125.455
130.128
135.142
140.475
145.961
151.712
157.673
163.645
169.549
175.25
180.642
185.599
190.013
193.762
196.759
198.914
200.171
200.488
199.858
198.28
195.798
192.466
188.437
183.769
178.338
171.853
164.045
155.219
146.313
138.194
130.733
123.457
116.278
109.276
102.535
96.1053
90.0227
84.3077
78.9674
73.9947
69.4106
65.176
61.2461
57.6275
54.3016
51.2506
48.4459
45.8718
43.5142
41.3552
39.3754
37.5641
35.9099
34.3998
33.0244
31.78
30.6666
29.7096
28.9471
28.5508
28.7537
30.3438
33.3169
41.5114
0
0.378674
0.789269
1.09174
1.5056
2.04943
2.73796
3.58484
4.59453
5.76304
7.09075
8.55723
10.0807
11.5549
12.9491
14.3312
15.7253
16.9198
17.8375
18.5059
18.995
19.3908
19.6845
19.8718
19.9608
19.9714
19.9109
19.793
19.6484
19.5013
19.3712
19.2747
19.2233
19.2264
19.2892
19.415
19.606
19.8628
20.1857
20.5743
21.0282
21.5463
22.1278
22.7715
23.4761
24.2404
25.0634
25.9437
26.8807
27.8736
28.9221
30.0263
31.1867
32.4036
33.6782
35.0117
36.4055
37.8611
39.3802
40.9649
42.6171
44.3388
46.1317
47.998
49.9392
51.9571
54.053
56.2279
58.4822
60.8162
63.2294
65.7213
68.29
70.9334
73.6497
76.4364
79.2883
82.1987
85.1612
88.1701
91.2172
94.2933
97.3892
100.496
103.603
106.699
109.774
112.809
115.776
118.657
121.443
124.131
126.714
129.19
131.59
133.912
136.025
137.927
139.765
141.428
143.118
144.638
146.327
147.996
149.924
151.838
153.927
156.095
158.599
161.267
164.136
167.275
170.77
174.552
178.661
183.25
188.348
193.619
199.238
205.177
211.384
217.849
224.493
231.143
237.662
243.893
249.677
254.859
259.288
262.825
265.348
266.756
266.98
265.981
263.757
260.332
255.792
250.246
243.666
235.868
226.72
216.539
205.845
194.917
183.987
173.375
163.162
153.241
143.602
134.306
125.417
116.982
109.029
101.57
94.6138
88.1472
82.1675
76.6532
71.5727
66.9133
62.6346
58.7145
55.1121
51.809
48.7874
46.0229
43.4909
41.1789
39.0699
37.1481
35.4045
33.8351
32.4453
31.2697
30.3678
29.9211
30.1862
31.9707
35.8475
42.8914
0
1.01805
1.94205
2.62748
3.27042
3.94829
4.70096
5.54767
6.49669
7.5493
8.70644
9.95591
11.2508
12.5251
13.7343
14.8752
15.9415
16.8665
17.6022
18.1436
18.5168
18.7575
18.8984
18.9787
19.0328
19.082
19.1397
19.2169
19.3234
19.4691
19.6653
19.9208
20.2438
20.6414
21.119
21.6812
22.331
23.0699
23.8987
24.8172
25.8247
26.9199
28.101
29.3663
30.714
32.1421
33.6492
35.2341
36.8959
38.6344
40.4499
42.3432
44.3157
46.3695
48.5069
50.7309
53.0445
55.4513
57.9546
60.5584
63.266
66.0811
69.0068
72.0459
75.2008
78.4733
81.8646
85.375
89.0038
92.7494
96.6093
100.58
104.656
108.832
113.1
117.453
121.881
126.371
130.91
135.485
140.08
144.68
149.267
153.826
158.338
162.786
167.152
171.409
175.532
179.49
183.272
186.878
190.299
193.537
196.6
199.484
202.131
204.526
206.739
208.769
210.702
212.486
214.269
216
217.786
219.54
221.35
223.208
225.246
227.429
229.816
232.445
235.399
238.728
242.472
246.619
251.17
256.06
261.35
266.994
272.957
279.23
285.696
292.223
298.632
304.764
310.418
315.429
319.607
322.798
324.845
325.635
325.07
323.112
319.75
315.041
308.961
301.411
292.247
281.618
269.919
257.484
244.594
231.523
218.521
205.816
193.464
181.459
169.829
158.642
147.958
137.828
128.278
119.325
110.973
103.213
96.0322
89.4041
83.2916
77.6727
72.5128
67.7961
63.4772
59.5274
55.9166
52.6163
49.5905
46.83
44.3151
42.0297
39.9647
38.1178
36.5016
35.1592
34.1671
33.7136
34.054
35.8753
39.7489
45.8292
0
1.82199
3.34064
4.50452
5.38927
6.16944
6.92508
7.68956
8.48171
9.31129
10.181
11.0836
11.9962
12.8853
13.7213
14.4885
15.1767
15.7654
16.2366
16.5859
16.8259
16.9821
17.0857
17.1705
17.267
17.3982
17.5798
17.8225
18.1361
18.5296
19.0119
19.5915
20.276
21.072
21.984
23.0154
24.1683
25.4435
26.8409
28.3591
29.9962
31.7494
33.6158
35.5923
37.6761
39.8645
42.1555
44.5476
47.0403
49.6336
52.3287
55.1275
58.033
61.0488
64.1791
67.4291
70.8042
74.3103
77.9532
81.739
85.6734
89.7619
94.0092
98.4197
102.997
107.742
112.657
117.741
122.992
128.406
133.978
139.701
145.565
151.559
157.671
163.885
170.185
176.551
182.962
189.397
195.83
202.237
208.592
214.87
221.045
227.089
232.974
238.673
244.15
249.368
254.314
258.974
263.344
267.423
271.21
274.7
277.865
280.695
283.214
285.453
287.446
289.208
290.798
292.236
293.563
294.782
295.936
297.056
298.212
299.433
300.828
302.479
304.387
306.614
309.199
312.211
315.637
319.469
323.715
328.365
333.411
338.821
344.49
350.279
356.02
361.525
366.596
371.032
374.634
377.215
378.598
378.645
377.244
374.349
369.875
363.694
355.663
345.787
334.327
321.607
307.931
293.601
278.893
264.06
249.329
234.879
220.779
207.067
193.796
181.039
168.86
157.309
146.415
136.196
126.655
117.786
109.567
101.969
94.9613
88.5149
82.5912
77.1605
72.186
67.6456
63.4994
59.7154
56.2593
53.1078
50.2395
47.6339
45.2871
43.2006
41.3942
39.9167
38.8551
38.3936
38.7684
40.5213
44.0544
49.1408
0
2.59861
4.66201
6.29441
7.40124
8.25821
8.98481
9.62974
10.2237
10.7868
11.3298
11.8557
12.3597
12.8314
13.2601
13.6388
13.964
14.2324
14.4429
14.6
14.7155
14.8084
14.9018
15.0198
15.1856
15.4189
15.7354
16.1479
16.6674
17.3041
18.0674
18.9659
20.0073
21.1978
22.5424
24.0441
25.7047
27.5241
29.5011
31.6331
33.9167
36.3477
38.922
41.6351
44.4831
47.4626
50.5711
53.8071
57.1703
60.6615
64.2831
68.0383
71.9319
75.9695
80.158
84.5051
89.0191
93.7088
98.5829
103.651
108.92
114.399
120.095
126.014
132.161
138.537
145.145
151.982
159.046
166.331
173.827
181.524
189.407
197.459
205.66
213.989
222.419
230.922
239.468
248.023
256.555
265.027
273.403
281.647
289.721
297.587
305.21
312.555
319.572
326.223
332.479
338.326
343.758
348.766
353.347
357.491
361.185
364.41
367.18
369.516
371.451
373.015
374.252
375.192
375.872
376.309
376.56
376.671
376.701
376.692
376.764
376.972
377.401
378.108
379.162
380.584
382.411
384.665
387.379
390.552
394.205
398.287
402.717
407.342
412.014
416.526
420.687
424.256
427.04
428.813
429.381
428.573
426.211
422.097
416.039
407.891
397.774
385.923
372.607
358.106
342.718
326.723
310.396
293.973
277.675
261.658
246.014
230.801
216.092
201.958
188.468
175.67
163.596
152.262
141.673
131.82
122.681
114.223
106.415
99.2246
92.6114
86.5413
80.9771
75.8885
71.2487
67.0204
63.1647
59.6522
56.4598
53.5689
50.9739
48.6757
46.7006
45.1016
43.9694
43.4742
43.8193
45.4154
48.4553
52.561
0
3.22761
5.67672
7.65503
8.92374
9.82421
10.504
11.0236
11.4249
11.739
11.9864
12.1805
12.3305
12.4425
12.5211
12.5716
12.5998
12.6125
12.617
12.6233
12.6437
12.6936
12.7902
12.9516
13.1952
13.5372
13.9923
14.574
15.2942
16.1646
17.1957
18.3972
19.7774
21.3432
23.0997
25.0498
27.195
29.5344
32.066
34.786
37.69
40.7728
44.0288
47.4529
51.0403
54.7873
58.6913
62.751
66.9669
71.341
75.8772
80.5806
85.4583
90.5186
95.7712
101.227
106.898
112.796
118.934
125.324
131.977
138.905
146.117
153.622
161.425
169.53
177.94
186.651
195.659
204.957
214.53
224.365
234.441
244.734
255.217
265.859
276.625
287.476
298.37
309.264
320.112
330.864
341.473
351.891
362.066
371.952
381.501
390.664
399.382
407.614
415.316
422.478
429.082
435.115
440.568
445.43
449.687
453.315
456.327
458.731
460.572
461.891
462.713
463.072
463.025
462.616
461.855
460.809
459.546
458.143
456.693
455.282
453.993
452.919
452.117
451.646
451.557
451.903
452.735
454.084
455.977
458.385
461.219
464.349
467.616
470.837
473.795
476.246
477.962
478.701
478.175
476.14
472.317
466.442
458.449
448.43
436.543
422.996
408.043
391.958
375.027
357.526
339.719
321.841
304.1
286.655
269.612
253.049
237.045
221.676
207.009
193.095
179.964
167.631
156.1
145.361
135.391
126.157
117.624
109.757
102.515
95.8594
89.7527
84.1635
79.0578
74.4107
70.1817
66.3334
62.8389
59.6794
56.8498
54.3561
52.2245
50.5053
49.2875
48.7212
48.9687
50.3317
52.8104
56.0055
0
3.62614
6.24253
8.39253
9.7325
10.6308
11.248
11.6517
11.8921
12.0093
12.0318
11.9818
11.8774
11.7352
11.5701
11.3962
11.227
11.0752
10.9532
10.8731
10.8476
10.8899
11.014
11.2342
11.5648
12.0201
12.6141
13.3605
14.2722
15.362
16.6416
18.1217
19.8117
21.7189
23.8487
26.2044
28.787
31.5954
34.627
37.8775
41.3417
45.0137
48.8877
52.9579
57.2194
61.6687
66.3036
71.1238
76.131
81.329
86.7237
92.323
98.1364
104.175
110.454
116.985
123.786
130.873
138.262
145.968
154.008
162.396
171.144
180.264
189.763
199.647
209.917
220.572
231.604
243.004
254.755
266.838
279.226
291.888
304.79
317.889
331.141
344.495
357.898
371.292
384.618
397.814
410.818
423.567
435.998
448.05
459.664
470.772
481.32
491.243
500.502
509.076
516.938
524.075
530.47
536.112
540.976
545.048
548.321
550.831
552.584
553.667
554.123
553.962
553.218
551.928
550.151
547.948
545.394
542.568
539.557
536.453
533.363
530.4
527.632
525.13
522.963
521.217
519.957
519.261
519.155
519.641
520.616
521.977
523.55
525.167
526.608
527.592
527.855
527.118
524.999
521.185
515.452
507.716
497.956
486.253
472.744
457.642
441.181
423.633
405.268
386.367
367.182
347.95
328.869
310.109
291.782
273.986
256.801
240.309
224.575
209.65
195.56
182.322
169.937
158.395
147.669
137.728
128.534
120.048
112.229
105.036
98.4298
92.3762
86.8403
81.7957
77.2119
73.0436
69.2616
65.8469
62.7943
60.1102
57.8211
55.9768
54.6548
53.9791
54.0693
55.1417
57.0423
59.429
0
3.76716
6.32609
8.46477
9.77425
10.6171
11.1533
11.4538
11.5738
11.5593
11.4438
11.254
11.0129
10.7414
10.459
10.184
9.93325
9.72224
9.56509
9.47492
9.46417
9.54504
9.72985
10.0313
10.4625
11.0371
11.7691
12.6726
13.7618
15.0504
16.5513
18.2762
20.2354
22.4373
24.8876
27.59
30.5456
33.7536
37.2111
40.914
44.8569
49.034
53.4393
58.0677
62.9147
67.9775
73.255
78.7486
84.4618
90.4009
96.5744
102.993
109.67
116.62
123.861
131.411
139.291
147.52
156.121
165.112
174.513
184.343
194.617
205.348
216.549
228.224
240.377
253.005
266.099
279.648
293.631
308.023
322.793
337.901
353.303
368.947
384.776
400.729
416.738
432.731
448.634
464.37
479.864
495.036
509.811
524.112
537.864
550.995
563.437
575.113
585.986
596.017
605.183
613.464
620.844
627.304
632.81
637.362
640.937
643.582
645.341
646.293
646.449
645.815
644.444
642.385
639.69
636.428
632.672
628.505
624.013
619.294
614.478
609.673
604.966
600.435
596.171
592.286
588.871
586.02
583.732
582.039
580.901
580.199
579.77
579.45
579.024
578.166
576.547
573.795
569.636
563.836
556.225
546.705
535.249
521.924
506.865
490.269
472.366
453.414
433.684
413.446
392.955
372.443
352.109
332.126
312.611
293.675
275.406
257.884
241.175
225.327
210.366
196.305
183.145
170.871
159.458
148.87
139.071
130.018
121.669
113.982
106.916
100.433
94.4983
89.0829
84.1611
79.6856
75.6269
71.9659
68.6965
65.8249
63.3757
61.3931
59.9437
59.1255
59.0123
59.757
61.0937
62.7814
0
3.67434
5.98314
7.9477
9.13193
9.86565
10.3012
10.5085
10.5462
10.4623
10.2924
10.0642
9.80089
9.52295
9.24914
8.99683
8.782
8.61933
8.52223
8.50307
8.57358
8.74532
9.03005
9.44012
9.98868
10.6898
11.5581
12.6091
13.8581
15.3202
17.0095
18.9392
21.1208
23.5637
26.2746
29.2579
32.5155
36.047
39.8503
43.9218
48.2566
52.8496
57.6958
62.7908
68.1317
73.717
79.5476
85.6267
91.9605
98.558
105.431
112.594
120.063
127.858
135.999
144.511
153.417
162.743
172.513
182.752
193.482
204.726
216.504
228.831
241.721
255.182
269.216
283.821
298.987
314.697
330.929
347.652
364.828
382.409
400.34
418.56
436.999
455.581
474.225
492.845
511.35
529.649
547.65
565.258
582.385
598.936
614.827
629.979
644.299
657.719
670.18
681.647
692.098
701.508
709.862
717.127
723.284
728.315
732.22
735.066
736.9
737.774
737.703
736.701
734.828
732.128
728.664
724.495
719.694
714.328
708.489
702.29
695.862
689.309
682.722
676.193
669.845
663.807
658.216
653.127
648.606
644.686
641.34
638.435
635.847
633.358
630.719
627.609
623.743
618.813
612.578
604.796
595.308
583.982
570.815
555.856
539.241
521.149
501.808
481.465
460.39
438.845
417.089
395.349
373.825
352.694
332.067
312.077
292.811
274.346
256.747
240.058
224.304
209.497
195.636
182.7
170.663
159.488
149.137
139.567
130.735
122.596
115.108
108.23
101.927
96.169
90.9272
86.1582
81.8332
77.9337
74.4522
71.3939
68.7793
66.6461
65.0474
64.0567
63.7087
64.1083
64.9134
66.0056
0
3.39944
5.32283
6.99392
7.97856
8.55873
8.87333
8.99259
8.97653
8.87322
8.718
8.53667
8.34905
8.17123
8.01699
7.89857
7.82726
7.81361
7.8677
7.99945
8.21893
8.53673
8.96437
9.5145
10.201
11.0391
12.045
13.2357
14.6285
16.2403
18.087
20.1837
22.5436
25.1775
28.0937
31.2979
34.7933
38.5809
42.6598
47.0277
51.6811
56.6163
61.8298
67.3191
73.0832
79.1227
85.4409
92.0437
98.9398
106.142
113.664
121.525
129.745
138.347
147.357
156.801
166.709
177.109
188.03
199.499
211.545
224.192
237.462
251.375
265.945
281.183
297.092
313.669
330.902
348.771
367.249
386.299
405.874
425.919
446.368
467.148
488.176
509.361
530.608
551.814
572.874
593.679
614.121
634.094
653.489
672.203
690.139
707.201
723.292
738.334
752.261
765.045
776.661
787.084
796.296
804.263
810.976
816.414
820.61
823.613
825.489
826.267
825.973
824.63
822.301
819.029
814.877
809.901
804.173
797.765
790.767
783.305
775.488
767.412
759.164
750.849
742.618
734.613
726.981
719.796
713.155
707.041
701.41
696.183
691.189
686.236
681.06
675.427
669.086
661.792
653.315
643.438
631.988
618.861
604.011
587.466
569.343
549.813
529.09
507.422
485.07
462.298
439.356
416.476
393.855
371.678
350.035
329.077
308.896
289.573
271.164
253.714
237.242
221.771
207.285
193.757
181.159
169.457
158.61
148.575
139.308
130.761
122.889
115.652
109.012
102.939
97.3992
92.3536
87.7757
83.6472
79.9596
76.7158
73.9315
71.6368
69.871
68.6853
68.0832
68.136
68.452
69.0428
0
3.00804
4.47521
5.78454
6.52247
6.9186
7.09737
7.13075
7.08008
6.9931
6.90344
6.83322
6.79655
6.80236
6.85648
6.96311
7.12591
7.3487
7.636
7.99345
8.42815
8.94898
9.56682
10.2946
11.1472
12.1412
13.2949
14.6275
16.1587
17.9077
19.8934
22.1338
24.6435
27.4362
30.522
33.9091
37.603
41.6067
45.9217
50.5475
55.4829
60.7268
66.2778
72.1361
78.303
84.7817
91.5782
98.7009
106.161
113.974
122.159
130.733
139.726
149.161
159.067
169.476
180.42
191.929
204.037
216.773
230.168
244.249
259.041
274.565
290.836
307.866
325.658
344.206
363.495
383.502
404.194
425.53
447.456
469.906
492.805
516.066
539.594
563.283
587.023
610.694
634.177
657.347
680.083
702.259
723.756
744.459
764.255
783.038
800.712
817.181
832.389
846.301
858.892
870.147
880.041
888.559
895.683
901.425
905.793
908.875
910.711
911.349
910.813
909.148
906.394
902.61
897.847
892.165
885.63
878.327
870.349
861.808
852.795
843.389
833.673
823.772
813.834
804.023
794.454
785.222
776.364
767.895
759.783
751.889
744.158
736.444
728.589
720.478
711.841
702.446
691.985
680.225
666.977
652.038
635.439
617.234
597.529
576.496
554.344
531.322
507.685
483.693
459.591
435.611
411.947
388.805
366.227
344.413
323.434
303.363
284.252
266.138
249.041
232.976
217.939
203.889
190.798
178.631
167.346
156.905
147.257
138.348
130.134
122.573
115.631
109.274
103.462
98.1624
93.3492
89.005
85.1199
81.6945
78.7394
76.2761
74.331
72.9361
72.0714
71.7876
71.662
71.8341
0
2.56791
3.56886
4.4992
4.97261
5.17103
5.20756
5.15812
5.08662
5.04091
5.05237
5.13843
5.3062
5.55605
5.88434
6.28564
6.75435
7.28596
7.87787
8.52999
9.24516
10.0295
10.8923
11.8464
12.9074
14.0934
15.4255
16.9248
18.6145
20.5173
22.6551
25.0503
27.72
30.6812
33.9473
37.5293
41.4357
45.6728
50.245
55.1553
60.4056
65.9973
71.9318
78.2111
84.84
91.8241
99.172
106.895
115.006
123.524
132.469
141.864
151.738
162.117
173.033
184.517
196.603
209.322
222.711
236.801
251.624
267.207
283.577
300.754
318.755
337.59
357.26
377.758
399.065
421.157
443.996
467.534
491.709
516.447
541.662
567.255
593.117
619.131
645.168
671.098
696.784
722.089
746.875
771.006
794.352
816.778
838.171
858.413
877.403
895.041
911.269
926.056
939.376
951.225
961.583
970.454
977.821
983.715
988.104
991.153
992.85
993.278
992.463
990.455
987.281
983.006
977.672
971.333
964.047
955.882
946.937
937.307
927.07
916.297
905.074
893.553
881.902
870.263
858.728
847.323
836.06
825.041
814.27
803.844
793.596
783.513
773.487
763.105
752.172
740.435
727.745
713.862
698.612
681.779
663.484
643.678
622.468
600.017
576.538
552.271
527.47
502.385
477.258
452.313
427.743
403.762
380.38
357.817
336.143
315.427
295.716
277.039
259.407
242.876
227.398
212.921
199.423
186.868
175.214
164.419
154.439
145.216
136.704
128.864
121.659
115.051
109.002
103.476
98.4508
93.9088
89.8392
86.2404
83.1173
80.4837
78.3538
76.7447
75.6188
75.0168
74.4979
74.3232
0
2.134
2.706
3.28079
3.49918
3.50551
3.40721
3.28677
3.21184
3.23077
3.37231
3.64885
4.06018
4.59787
5.24872
5.99753
6.82931
7.73087
8.6919
9.70588
10.7706
11.8885
13.0671
14.318
15.6577
17.1061
18.6869
20.4239
22.3434
24.471
26.8323
29.4519
32.353
35.5572
39.0825
42.9447
47.1564
51.7283
56.669
61.9855
67.6836
73.7683
80.2444
87.1173
94.3927
102.079
110.186
118.726
127.713
137.166
147.105
157.554
168.537
180.085
192.225
204.992
218.417
232.533
247.376
262.975
279.359
296.556
314.588
333.48
353.246
373.897
395.435
417.848
441.118
465.212
490.089
515.693
541.957
568.795
596.114
623.799
651.732
679.78
707.803
735.657
763.194
790.262
816.712
842.4
867.185
890.925
913.484
934.762
954.634
973.019
989.86
1005.11
1018.77
1030.83
1041.3
1050.18
1057.49
1063.24
1067.39
1070.14
1071.49
1071.5
1070.26
1067.75
1064.02
1059.13
1053.11
1046
1037.86
1028.77
1018.82
1008.08
996.628
984.514
971.835
958.725
945.275
931.649
917.954
904.287
890.811
877.5
864.619
851.901
839.395
826.851
814.203
801.334
787.961
774.094
759.368
743.538
726.425
707.88
687.894
666.501
643.814
619.996
595.26
569.84
543.982
517.924
491.902
466.133
440.801
416.085
392.087
368.941
346.732
325.522
305.352
286.248
268.213
251.282
235.446
220.631
206.814
193.954
182.007
170.947
160.718
151.242
142.491
134.422
126.992
120.169
113.915
108.195
102.985
98.2675
94.031
90.2722
86.9891
84.1891
81.8765
80.0551
78.6788
77.7821
76.9167
76.4577
0
1.74586
1.94386
2.21013
2.19952
2.03405
1.82325
1.65842
1.61156
1.73097
2.04199
2.55141
3.25179
4.12666
5.15437
6.31131
7.57434
8.92264
10.3389
11.8105
13.3304
14.8979
16.5185
18.2016
19.9633
21.8244
23.81
25.9473
28.2673
30.8005
33.5783
36.6305
39.9855
43.6694
47.7059
52.1158
56.9176
62.1271
67.7581
73.822
80.3288
87.2868
94.7039
102.587
110.945
119.784
129.113
138.944
149.288
160.162
171.583
183.572
196.151
209.344
223.178
237.679
252.874
268.791
285.455
302.896
321.138
340.205
360.121
380.903
402.57
425.125
448.571
472.894
498.071
524.067
550.834
578.315
606.43
635.092
664.187
693.6
723.188
752.816
782.335
811.588
840.415
868.656
896.157
922.768
948.329
972.696
995.74
1017.33
1037.39
1055.82
1072.56
1087.59
1100.89
1112.47
1122.37
1130.61
1137.22
1142.19
1145.5
1147.39
1147.83
1146.93
1144.75
1141.25
1136.51
1130.54
1123.39
1115.11
1105.74
1095.36
1084.04
1071.82
1058.74
1044.87
1030.34
1015.33
1000.02
984.492
968.853
953.403
937.973
922.774
907.641
892.672
877.898
863.128
848.534
833.777
818.638
802.919
786.385
768.814
750.038
729.935
708.493
685.745
661.799
636.824
611.027
584.64
557.896
531.026
504.256
477.797
451.829
426.522
401.986
378.348
355.686
334.061
313.509
294.054
275.703
258.467
242.325
227.237
213.159
200.048
187.857
176.553
166.098
156.416
147.465
139.204
131.592
124.598
118.179
112.293
106.922
102.049
97.6591
93.749
90.3132
87.3518
84.8593
82.8334
81.2201
80.0534
78.8827
78.198
0
1.43521
1.36888
1.40655
1.2274
0.946507
0.681422
0.532219
0.572965
0.849282
1.3816
2.17074
3.20369
4.45854
5.90873
7.52596
9.28244
11.1528
13.1155
15.1543
17.259
19.4261
21.6588
23.9666
26.366
28.8798
31.5355
34.365
37.4023
40.6824
44.2403
48.1114
52.328
56.9248
61.9302
67.371
73.2708
79.6502
86.527
93.9149
101.827
110.272
119.258
128.792
138.878
149.524
160.731
172.504
184.849
197.771
211.283
225.392
240.116
255.469
271.467
288.126
305.464
323.499
342.252
361.743
381.988
403.01
424.817
447.434
470.866
495.128
520.218
546.122
572.816
600.267
628.426
657.233
686.608
716.453
746.652
777.07
807.57
838.004
868.221
898.058
927.348
955.927
983.638
1010.32
1035.83
1060.01
1082.71
1103.84
1123.31
1141.03
1156.95
1171.03
1183.25
1193.66
1202.32
1209.29
1214.59
1218.18
1220.08
1220.62
1219.64
1217.38
1213.79
1208.85
1202.62
1195.12
1186.37
1176.42
1165.33
1153.16
1139.98
1125.87
1110.86
1095.01
1078.47
1061.51
1044.18
1026.68
1009.1
991.412
973.745
956.294
938.963
922.062
905.414
888.903
872.43
855.852
838.966
821.602
803.51
784.489
764.373
743.064
720.533
696.817
672.018
646.302
619.87
592.941
565.732
538.46
511.335
484.562
458.316
432.755
408.004
384.175
361.342
339.559
318.863
299.276
280.803
263.442
247.172
231.957
217.756
204.524
192.226
180.811
170.232
160.431
151.364
142.987
135.256
128.138
121.598
115.595
110.106
105.114
100.605
96.5738
93.0056
89.898
87.2428
85.0292
83.1999
81.7927
80.354
79.5036
0
1.21184
1.00664
0.918487
0.654709
0.341248
0.106731
0.0554927
0.258492
0.755429
1.56158
2.67464
4.07985
5.75468
7.67286
9.80765
12.1332
14.6256
17.2632
20.0302
22.9176
25.9236
29.0523
32.3156
35.7279
39.316
43.1106
47.147
51.4626
56.0949
61.0816
66.4603
72.266
78.5359
85.2999
92.588
100.427
108.835
117.832
127.432
137.641
148.465
159.903
171.955
184.617
197.885
211.75
226.206
241.242
256.853
273.03
289.777
307.093
324.981
343.44
362.472
382.082
402.279
423.072
444.472
466.487
489.129
512.414
536.351
560.954
586.241
612.213
638.867
666.185
694.14
722.694
751.79
781.354
811.287
841.474