/*--------------------------------*- C++ -*----------------------------------*\
  =========                 |
  \\      /  F ield         | OpenFOAM: The Open Source CFD Toolbox
   \\    /   O peration     | Website:  https://openfoam.org
    \\  /    A nd           | Version:  11
     \\/     M anipulation  |
\*---------------------------------------------------------------------------*/
FoamFile
{
    format      ascii;
    class       volVectorField;
    location    "100";
    object      U;
}
// * * * * * * * * * * * * * * * * * * * * * * * * * * * * * * * * * * * * * //

dimensions      [0 1 -1 0 0 0 0];

internalField   nonuniform List<vector> 
12225
(
(9.85697 -0.886412 0)
(9.6666 -0.740745 0)
(9.45559 -0.429459 0)
(9.22424 -0.222191 0)
(9.00601 -0.106415 0)
(8.81361 -0.0458098 0)
(8.64629 -0.0151084 0)
(8.50371 0.000553325 0)
(8.38134 0.00852229 0)
(8.27785 0.0124627 0)
(8.18823 0.0142566 0)
(8.11065 0.0153824 0)
(8.04162 0.0159427 0)
(7.97957 0.0165306 0)
(7.92105 0.0169726 0)
(7.86747 0.0188671 0)
(7.79344 0.0199492 0)
(7.78301 0.0306793 0)
(10.0545 0.227556 0)
(10.121 0.326934 0)
(10.1196 0.261591 0)
(10.0855 0.186587 0)
(10.0432 0.13473 0)
(9.9964 0.101208 0)
(9.94354 0.0794245 0)
(9.88449 0.0647472 0)
(9.82285 0.0545124 0)
(9.75983 0.047023 0)
(9.69785 0.041408 0)
(9.63721 0.0370862 0)
(9.57894 0.0337848 0)
(9.52319 0.031537 0)
(9.46913 0.0300633 0)
(9.42023 0.0317179 0)
(9.36617 0.0322796 0)
(9.34108 0.0564709 0)
(10.0035 0.0579248 0)
(10.0303 0.0560255 0)
(10.056 0.0338212 0)
(10.0702 0.032958 0)
(10.0767 0.0407436 0)
(10.0775 0.0466824 0)
(10.072 0.0495497 0)
(10.0606 0.0505671 0)
(10.0451 0.0505663 0)
(10.0262 0.0499952 0)
(10.0051 0.0491601 0)
(9.98218 0.0483103 0)
(9.95806 0.0475985 0)
(9.93311 0.0473451 0)
(9.90722 0.0475327 0)
(9.88181 0.0499135 0)
(9.855 0.0527713 0)
(9.83354 0.0660158 0)
(9.99778 0.0110647 0)
(10.011 0.0266353 0)
(10.0349 0.0372031 0)
(10.0524 0.0481696 0)
(10.0641 0.0555801 0)
(10.073 0.0583657 0)
(10.0789 0.0586076 0)
(10.0816 0.0579628 0)
(10.0816 0.0570486 0)
(10.0797 0.0560419 0)
(10.0761 0.0550431 0)
(10.0711 0.0542185 0)
(10.0648 0.0536336 0)
(10.0576 0.0535771 0)
(10.0494 0.0540993 0)
(10.0411 0.0564004 0)
(10.0326 0.0597012 0)
(10.0266 0.068022 0)
(9.99935 0.0072131 0)
(10.009 0.0316926 0)
(10.0274 0.0439926 0)
(10.0416 0.0500353 0)
(10.0525 0.0537776 0)
(10.0624 0.055469 0)
(10.071 0.0558396 0)
(10.0775 0.05567 0)
(10.0823 0.0552917 0)
(10.0858 0.0548169 0)
(10.0881 0.0543339 0)
(10.0894 0.0539908 0)
(10.0899 0.0538807 0)
(10.0897 0.0542413 0)
(10.0888 0.0551923 0)
(10.088 0.0574249 0)
(10.0876 0.0606209 0)
(10.0892 0.0659372 0)
(10.0003 0.00919815 0)
(10.0083 0.0312191 0)
(10.0226 0.0410333 0)
(10.0348 0.0455328 0)
(10.0448 0.0492415 0)
(10.0544 0.0516584 0)
(10.0632 0.0527475 0)
(10.0706 0.0531229 0)
(10.0768 0.0531818 0)
(10.082 0.053084 0)
(10.0864 0.0529399 0)
(10.0901 0.052891 0)
(10.0932 0.0530477 0)
(10.0957 0.0535972 0)
(10.098 0.0546633 0)
(10.1004 0.0566071 0)
(10.1034 0.0592456 0)
(10.108 0.0626553 0)
(10.0004 0.00896939 0)
(10.0071 0.0271458 0)
(10.019 0.0365216 0)
(10.03 0.0415586 0)
(10.0393 0.045658 0)
(10.0483 0.0484196 0)
(10.0567 0.0498126 0)
(10.0642 0.0504448 0)
(10.0707 0.0507361 0)
(10.0765 0.050855 0)
(10.0816 0.0509132 0)
(10.0863 0.0510377 0)
(10.0904 0.051338 0)
(10.0943 0.0519532 0)
(10.098 0.0529787 0)
(10.1019 0.0545736 0)
(10.1064 0.0565785 0)
(10.1121 0.0587203 0)
(10.0004 0.00794547 0)
(10.006 0.0234509 0)
(10.0161 0.0328635 0)
(10.0261 0.0382993 0)
(10.0349 0.0423818 0)
(10.0432 0.0451739 0)
(10.0512 0.0467241 0)
(10.0585 0.0475391 0)
(10.065 0.0480009 0)
(10.0709 0.0482768 0)
(10.0764 0.0484763 0)
(10.0814 0.0487125 0)
(10.0861 0.0490853 0)
(10.0905 0.0496924 0)
(10.095 0.0505931 0)
(10.0996 0.0518279 0)
(10.1048 0.0532386 0)
(10.1108 0.0544848 0)
(10.0004 0.00699479 0)
(10.005 0.0205098 0)
(10.0136 0.0296015 0)
(10.0227 0.0350891 0)
(10.031 0.039038 0)
(10.0388 0.0418209 0)
(10.0464 0.0435068 0)
(10.0534 0.0444785 0)
(10.0598 0.045075 0)
(10.0657 0.0454676 0)
(10.0712 0.0457644 0)
(10.0764 0.0460661 0)
(10.0813 0.0464569 0)
(10.0861 0.047003 0)
(10.0909 0.0477305 0)
(10.0959 0.0486179 0)
(10.1013 0.0495128 0)
(10.1073 0.0501173 0)
(10.0004 0.00616889 0)
(10.0043 0.0179549 0)
(10.0116 0.0264426 0)
(10.0197 0.0318377 0)
(10.0274 0.0356708 0)
(10.0348 0.0384297 0)
(10.042 0.0402081 0)
(10.0487 0.041296 0)
(10.055 0.0419917 0)
(10.0609 0.0424667 0)
(10.0664 0.0428258 0)
(10.0716 0.0431562 0)
(10.0766 0.0435261 0)
(10.0816 0.0439777 0)
(10.0865 0.0445132 0)
(10.0917 0.0450844 0)
(10.097 0.0455563 0)
(10.1028 0.0457016 0)
(10.0003 0.00541369 0)
(10.0036 0.0156545 0)
(10.0098 0.0234207 0)
(10.0172 0.028627 0)
(10.0243 0.0323276 0)
(10.0313 0.0350198 0)
(10.038 0.0368325 0)
(10.0445 0.0379931 0)
(10.0506 0.0387558 0)
(10.0564 0.0392838 0)
(10.0618 0.0396757 0)
(10.0671 0.040006 0)
(10.0721 0.0403283 0)
(10.0771 0.040668 0)
(10.0821 0.0410139 0)
(10.0872 0.0413111 0)
(10.0925 0.0414506 0)
(10.098 0.0412719 0)
(10.0003 0.00475259 0)
(10.0031 0.0137228 0)
(10.0085 0.0207897 0)
(10.0151 0.0257379 0)
(10.0218 0.0292797 0)
(10.0283 0.0318734 0)
(10.0348 0.033673 0)
(10.041 0.0348641 0)
(10.0469 0.0356606 0)
(10.0525 0.0362126 0)
(10.0579 0.0366116 0)
(10.0632 0.036921 0)
(10.0682 0.0371837 0)
(10.0732 0.0374152 0)
(10.0782 0.0375994 0)
(10.0832 0.0376859 0)
(10.0883 0.0375902 0)
(10.0935 0.0372051 0)
(10.0003 0.00414221 0)
(10.0027 0.0119587 0)
(10.0074 0.0183011 0)
(10.0134 0.0229139 0)
(10.0195 0.0262605 0)
(10.0257 0.0287277 0)
(10.0318 0.0304786 0)
(10.0378 0.0316683 0)
(10.0436 0.0324739 0)
(10.0491 0.0330294 0)
(10.0544 0.0334176 0)
(10.0595 0.0336927 0)
(10.0645 0.0338885 0)
(10.0695 0.0340155 0)
(10.0744 0.0340577 0)
(10.0793 0.0339735 0)
(10.0842 0.0337006 0)
(10.0891 0.0331704 0)
(10.0002 0.00351179 0)
(10.0024 0.0101247 0)
(10.0064 0.0156307 0)
(10.0117 0.0197826 0)
(10.0173 0.0228495 0)
(10.0231 0.0251282 0)
(10.0289 0.0267766 0)
(10.0346 0.0279227 0)
(10.0401 0.0287056 0)
(10.0455 0.0292385 0)
(10.0507 0.0295943 0)
(10.0557 0.0298176 0)
(10.0607 0.029934 0)
(10.0655 0.0299511 0)
(10.0703 0.0298568 0)
(10.075 0.029622 0)
(10.0797 0.0292058 0)
(10.0843 0.0285688 0)
(10.0002 0.00285671 0)
(10.002 0.00821763 0)
(10.0055 0.0127851 0)
(10.0101 0.0163441 0)
(10.0153 0.0190263 0)
(10.0206 0.0210372 0)
(10.026 0.0225128 0)
(10.0314 0.0235567 0)
(10.0367 0.0242716 0)
(10.0419 0.0247459 0)
(10.0469 0.0250406 0)
(10.0518 0.0251916 0)
(10.0566 0.0252181 0)
(10.0614 0.0251259 0)
(10.066 0.024909 0)
(10.0705 0.0245514 0)
(10.0749 0.0240314 0)
(10.0792 0.0233308 0)
(10.0002 0.00217539 0)
(10.0017 0.00623814 0)
(10.0047 0.00977033 0)
(10.0087 0.0125994 0)
(10.0134 0.0147738 0)
(10.0183 0.0164188 0)
(10.0233 0.0176357 0)
(10.0284 0.0185027 0)
(10.0335 0.0190908 0)
(10.0384 0.0194621 0)
(10.0433 0.0196624 0)
(10.048 0.0197205 0)
(10.0527 0.0196506 0)
(10.0572 0.0194578 0)
(10.0616 0.0191413 0)
(10.0659 0.0186957 0)
(10.0701 0.0181144 0)
(10.0741 0.0173911 0)
(10.0002 0.00146382 0)
(10.0015 0.00417059 0)
(10.0041 0.00656722 0)
(10.0076 0.00852722 0)
(10.0118 0.0100572 0)
(10.0163 0.011221 0)
(10.021 0.0120802 0)
(10.0258 0.0126844 0)
(10.0306 0.013077 0)
(10.0354 0.0132951 0)
(10.04 0.0133676 0)
(10.0446 0.0133141 0)
(10.049 0.0131453 0)
(10.0534 0.0128658 0)
(10.0575 0.0124774 0)
(10.0616 0.0119811 0)
(10.0655 0.0113788 0)
(10.0692 0.0106702 0)
(10.0001 0.000704617 0)
(10.0013 0.00196181 0)
(10.0036 0.00310148 0)
(10.0069 0.00404433 0)
(10.0108 0.00478174 0)
(10.015 0.00533487 0)
(10.0194 0.00572597 0)
(10.0239 0.0059744 0)
(10.0285 0.00609759 0)
(10.033 0.0061098 0)
(10.0375 0.00602212 0)
(10.0418 0.0058425 0)
(10.0461 0.00557604 0)
(10.0502 0.00522532 0)
(10.0541 0.00479239 0)
(10.0579 0.00427985 0)
(10.0616 0.00369228 0)
(10.0651 0.00303038 0)
(10.0001 -0.000146466 0)
(10.0013 -0.0005107 0)
(10.0035 -0.00080161 0)
(10.0066 -0.0010445 0)
(10.0103 -0.00124822 0)
(10.0144 -0.00142919 0)
(10.0187 -0.0016058 0)
(10.0231 -0.00179238 0)
(10.0275 -0.00199763 0)
(10.0319 -0.00223026 0)
(10.0362 -0.00249763 0)
(10.0404 -0.002806 0)
(10.0444 -0.00315895 0)
(10.0483 -0.00355923 0)
(10.0521 -0.00400787 0)
(10.0557 -0.00450486 0)
(10.0592 -0.00504718 0)
(10.0624 -0.00563712 0)
(10.0001 -0.000963224 0)
(10.0013 -0.00288263 0)
(10.0037 -0.00455481 0)
(10.007 -0.00592966 0)
(10.0109 -0.00701354 0)
(10.0151 -0.0078677 0)
(10.0195 -0.00855504 0)
(10.024 -0.00911876 0)
(10.0284 -0.00959557 0)
(10.0328 -0.0100182 0)
(10.037 -0.0104141 0)
(10.0412 -0.0108021 0)
(10.0451 -0.0111954 0)
(10.049 -0.0116022 0)
(10.0526 -0.012029 0)
(10.0561 -0.0124792 0)
(10.0594 -0.012954 0)
(10.0626 -0.0134577 0)
(10.0002 -0.00166773 0)
(10.0015 -0.00495256 0)
(10.0041 -0.00783137 0)
(10.0078 -0.0101279 0)
(10.0121 -0.0118719 0)
(10.0166 -0.0132148 0)
(10.0212 -0.0142639 0)
(10.0258 -0.0150774 0)
(10.0304 -0.0157141 0)
(10.0348 -0.0162328 0)
(10.0391 -0.016681 0)
(10.0432 -0.0170888 0)
(10.0472 -0.0174768 0)
(10.051 -0.017858 0)
(10.0546 -0.0182427 0)
(10.058 -0.0186372 0)
(10.0613 -0.0190449 0)
(10.0643 -0.0194711 0)
(10.0002 -0.00233643 0)
(10.0017 -0.00699596 0)
(10.0047 -0.0111009 0)
(10.009 -0.0142272 0)
(10.0138 -0.0164816 0)
(10.0187 -0.018176 0)
(10.0235 -0.0194717 0)
(10.0284 -0.0204419 0)
(10.0332 -0.0211677 0)
(10.0377 -0.0217306 0)
(10.0421 -0.0221884 0)
(10.0463 -0.0225807 0)
(10.0502 -0.0229337 0)
(10.054 -0.0232672 0)
(10.0576 -0.0235938 0)
(10.061 -0.023923 0)
(10.0642 -0.0242581 0)
(10.0672 -0.0246054 0)
(10.0002 -0.00296205 0)
(10.0018 -0.00906321 0)
(10.0054 -0.0143892 0)
(10.0106 -0.0182449 0)
(10.016 -0.0209569 0)
(10.0213 -0.022949 0)
(10.0265 -0.0243776 0)
(10.0316 -0.0253703 0)
(10.0366 -0.0260819 0)
(10.0413 -0.0266223 0)
(10.0457 -0.0270489 0)
(10.0499 -0.0273983 0)
(10.0539 -0.0276999 0)
(10.0577 -0.027976 0)
(10.0613 -0.0282418 0)
(10.0647 -0.0285068 0)
(10.0679 -0.0287746 0)
(10.0709 -0.0290504 0)
(10.0001 -0.00351355 0)
(10.0018 -0.0115242 0)
(10.0063 -0.0178383 0)
(10.0123 -0.0219101 0)
(10.0184 -0.0249525 0)
(10.0242 -0.0273399 0)
(10.0298 -0.0289588 0)
(10.0353 -0.0299527 0)
(10.0404 -0.0305932 0)
(10.0452 -0.0310469 0)
(10.0498 -0.0313826 0)
(10.0541 -0.0316401 0)
(10.0581 -0.0318531 0)
(10.0619 -0.0320453 0)
(10.0655 -0.032232 0)
(10.0688 -0.0324204 0)
(10.072 -0.0326138 0)
(10.0749 -0.0328131 0)
(9.99992 -0.00336696 0)
(10.0016 -0.014947 0)
(10.0073 -0.0226884 0)
(10.0143 -0.0261812 0)
(10.0207 -0.0287481 0)
(10.0269 -0.0310961 0)
(10.0332 -0.0328045 0)
(10.0392 -0.0338823 0)
(10.0447 -0.0345736 0)
(10.0497 -0.0350331 0)
(10.0544 -0.0353326 0)
(10.0588 -0.0355259 0)
(10.0628 -0.0356591 0)
(10.0665 -0.0357638 0)
(10.07 -0.0358585 0)
(10.0731 -0.0359531 0)
(10.0761 -0.0360514 0)
(10.0788 -0.0361564 0)
(9.9986 -0.000388067 0)
(9.99909 -0.0157406 0)
(10.0076 -0.0274012 0)
(10.0167 -0.032449 0)
(10.0238 -0.0348105 0)
(10.0307 -0.0361514 0)
(10.0378 -0.0368921 0)
(10.0443 -0.0373517 0)
(10.0501 -0.0376957 0)
(10.0553 -0.0379408 0)
(10.0599 -0.0380871 0)
(10.064 -0.0381596 0)
(10.0676 -0.0381894 0)
(10.0708 -0.0381989 0)
(10.0736 -0.0382028 0)
(10.076 -0.0382096 0)
(10.0782 -0.0382214 0)
(10.08 -0.0382404 0)
(9.99488 0.00134235 0)
(9.99288 -0.00808164 0)
(10.0061 -0.0203321 0)
(10.0202 -0.0322459 0)
(10.0307 -0.0404382 0)
(10.0393 -0.0441001 0)
(10.0469 -0.0450029 0)
(10.0531 -0.0448514 0)
(10.058 -0.0443806 0)
(10.0619 -0.043784 0)
(10.0649 -0.0431404 0)
(10.0671 -0.0425068 0)
(10.0686 -0.0419184 0)
(10.0695 -0.0413848 0)
(10.0698 -0.0409152 0)
(10.0697 -0.0405062 0)
(10.0692 -0.0401547 0)
(10.0685 -0.0398354 0)
(9.99473 -0.0305572 0)
(9.99926 -0.0228639 0)
(10.0147 -0.00262319 0)
(10.0304 -0.00188735 0)
(10.0435 -0.0116285 0)
(10.0534 -0.0208865 0)
(10.0595 -0.0272381 0)
(10.062 -0.0314605 0)
(10.0617 -0.0342316 0)
(10.0593 -0.0359265 0)
(10.0553 -0.0368585 0)
(10.05 -0.0372946 0)
(10.0438 -0.0374246 0)
(10.0368 -0.0373681 0)
(10.0293 -0.037216 0)
(10.0213 -0.0370244 0)
(10.0132 -0.0368579 0)
(10.005 -0.0366846 0)
(10.0273 -0.182756 0)
(10.0763 -0.28831 0)
(10.0872 -0.247747 0)
(10.0777 -0.186508 0)
(10.0664 -0.140278 0)
(10.0538 -0.108198 0)
(10.0366 -0.0858547 0)
(10.0146 -0.0703922 0)
(9.98951 -0.0596205 0)
(9.96251 -0.0518443 0)
(9.93458 -0.046022 0)
(9.90629 -0.0415283 0)
(9.87815 -0.0379776 0)
(9.85048 -0.0351078 0)
(9.82352 -0.0327481 0)
(9.79736 -0.0308361 0)
(9.77229 -0.0293276 0)
(9.74828 -0.0285192 0)
(9.93575 0.689321 0)
(9.86861 0.609607 0)
(9.76456 0.380631 0)
(9.6267 0.217452 0)
(9.486 0.11928 0)
(9.35737 0.0632037 0)
(9.24291 0.0315935 0)
(9.14143 0.0136345 0)
(9.05181 0.00328245 0)
(8.97291 -0.00277725 0)
(8.90308 -0.00633277 0)
(8.84096 -0.00845482 0)
(8.78531 -0.0097095 0)
(8.73525 -0.0104615 0)
(8.68985 -0.0109684 0)
(8.64851 -0.0112375 0)
(8.61032 -0.0114521 0)
(8.57495 -0.0121154 0)
(0.0119479 -0.0179114 -5.92556e-19)
(0.0325252 -0.0263989 2.98738e-19)
(0.0491207 -0.0245055 0)
(0.0645272 -0.0182338 0)
(0.0746765 -0.0101692 0)
(0.0786737 -0.00184382 -1.22395e-19)
(0.077117 0.00571385 0)
(0.0707431 0.0119193 0)
(0.060221 0.0166433 0)
(0.0463147 0.0198687 0)
(0.0300767 0.0218303 1.0654e-19)
(0.0116971 0.0236361 0)
(-0.00834883 0.0261918 0)
(-0.0296348 0.0312706 0)
(-0.0497627 0.0400926 0)
(-0.0734605 0.0360624 2.47572e-19)
(-0.10555 0.0140501 0)
(-0.128182 0.0125854 0)
(-0.161753 0.0180531 0)
(-0.201299 0.0272236 0)
(-0.244112 0.0372033 0)
(-0.291221 0.0458337 0)
(-0.342452 0.0532144 0)
(-0.397352 0.057544 1.21017e-19)
(-0.45511 0.0588846 -1.11148e-19)
(-0.513918 0.0602878 1.02596e-19)
(-0.57432 0.0615947 9.51331e-20)
(-0.635979 0.062576 0)
(-0.698529 0.0631279 0)
(-0.761522 0.0632283 -7.79074e-20)
(-0.824522 0.0628803 -7.35112e-20)
(-0.887106 0.0621239 0)
(-0.94891 0.0609944 0)
(-1.00962 0.0595531 -6.32298e-20)
(-1.06897 0.0578518 0)
(-1.12676 0.0559597 0)
(-1.18285 0.053927 5.60536e-20)
(-1.23714 0.0518152 0)
(-1.28958 0.0496617 5.243e-20)
(-1.34016 0.0475133 1.01753e-19)
(-1.3889 0.0453921 0)
(-1.43585 0.0433301 0)
(-1.48106 0.0413364 0)
(-1.52461 0.0394312 0)
(-1.56657 0.0376129 0)
(-1.60704 0.0358921 8.78378e-20)
(-1.64609 0.0342609 8.60561e-20)
(-1.68381 0.0327247 8.43788e-20)
(-1.72028 0.0312729 0)
(-1.75558 0.029908 -8.12774e-20)
(-1.78977 0.0286168 0)
(-1.82294 0.0274013 7.84443e-20)
(-1.85515 0.0262504 7.71059e-20)
(-1.88646 0.0251658 0)
(-1.91693 0.0241357 0)
(-1.94662 0.0231639 0)
(-1.97557 0.022242 7.2126e-20)
(-2.00383 0.0213741 0)
(-2.03145 0.020551 0)
(-2.05847 0.0197783 0)
(-2.08494 0.0190501 0)
(-2.11089 0.0183727 0)
(-2.13638 0.0177411 0)
(-2.16144 0.0171608 0)
(-2.18612 0.0166284 0)
(-2.21047 0.0161496 -6.19938e-20)
(-2.23451 0.0157222 0)
(-2.25831 0.0153506 0)
(-2.28191 0.0150336 5.87273e-20)
(-2.30536 0.014774 5.76429e-20)
(-2.3287 0.0145717 0)
(-2.352 0.0144278 -5.54819e-20)
(-2.3753 0.0143421 5.44061e-20)
(-2.39866 0.014313 0)
(-2.42213 0.0143421 -5.22648e-20)
(-2.44578 0.0144285 0)
(-2.46965 0.0145786 0)
(-2.49379 0.0147918 4.90925e-20)
(-2.51823 0.0150704 0)
(-2.54304 0.0154092 -4.70185e-20)
(-2.56823 0.0158139 0)
(-2.59384 0.016275 4.49935e-20)
(-2.61989 0.0167909 4.40054e-20)
(-2.64641 0.0173451 4.30357e-20)
(-2.67339 0.0179386 8.41762e-20)
(-2.70085 0.0185567 -8.23284e-20)
(-2.72875 0.0191969 0)
(-2.75706 0.0198377 0)
(-2.78571 0.0204752 0)
(-2.81467 0.0210617 -7.55069e-20)
(-2.84396 0.0215503 -7.39482e-20)
(-2.87352 0.0219056 7.24519e-20)
(-2.9032 0.0220564 0)
(-2.93284 0.0218555 -6.96689e-20)
(-2.96209 0.020663 -6.8377e-20)
(-2.99053 0.0198286 -6.7071e-20)
(-3.01841 0.0210104 0)
(-3.04583 0.0202677 0)
(-3.07202 0.0190374 0)
(-3.09691 0.0180647 -6.29141e-20)
(-3.11997 0.0170586 0)
(-3.14134 0.0158397 0)
(-3.1601 0.0138394 6.06184e-20)
(-3.17604 0.0122451 0)
(-3.18851 0.010289 0)
(-3.19745 0.00984318 5.89694e-20)
(-3.20258 0.00890261 0)
(-3.20416 0.00633784 0)
(-3.20159 0.00462521 -5.74841e-20)
(-3.19517 0.00325087 -5.69312e-20)
(-3.18462 0.00168216 0)
(-3.16966 -0.000855671 5.57694e-20)
(-3.14971 -0.0036244 0)
(-3.125 -0.00482568 -5.41501e-20)
(-3.09556 -0.00723307 0)
(-3.06052 -0.0106403 -5.20498e-20)
(-3.01998 -0.0127457 -5.0595e-20)
(-2.9742 -0.0151731 0)
(-2.92258 -0.0187477 0)
(-2.86514 -0.0219654 0)
(-2.80215 -0.0250112 0)
(-2.73341 -0.0285859 0)
(-2.65898 -0.0321339 0)
(-2.57887 -0.035793 0)
(-2.49312 -0.0394904 -2.60075e-20)
(-2.4019 -0.0432261 2.03608e-20)
(-2.30542 -0.0469437 0)
(-2.20395 -0.0506313 0)
(-2.09778 -0.0542304 0)
(-1.98724 -0.0577275 0)
(-1.87272 -0.0610766 -4.28487e-20)
(-1.75461 -0.0642614 0)
(-1.63333 -0.0672512 9.23116e-20)
(-1.50933 -0.0700329 -1.21397e-19)
(-1.38306 -0.0725936 0)
(-1.25496 -0.0749488 0)
(-1.12549 -0.0771086 0)
(-0.995087 -0.0790822 2.75288e-19)
(-0.864174 -0.080893 3.25875e-19)
(-0.733151 -0.0825702 0)
(-0.602373 -0.0841212 4.47596e-19)
(-0.472262 -0.0855013 5.21681e-19)
(-0.342916 -0.0867242 -6.07152e-19)
(-0.215095 -0.0879963 0)
(-0.0872454 -0.0881143 0)
(0.0432223 -0.0856896 -7.63382e-19)
(0.172547 -0.0817562 0)
(0.29872 -0.0775204 0)
(0.421374 -0.0733431 0)
(0.540078 -0.0693037 0)
(0.654644 -0.0654332 6.38401e-19)
(0.764962 -0.061718 6.22974e-19)
(0.871011 -0.0581707 0)
(0.972807 -0.054825 5.96991e-19)
(1.0704 -0.051647 0)
(1.16386 -0.0485992 0)
(1.2533 -0.0457226 5.66551e-19)
(1.33886 -0.043026 0)
(1.42064 -0.04048 5.49974e-19)
(1.49876 -0.0380722 0)
(1.57334 -0.0357944 0)
(1.64451 -0.0336441 5.29339e-19)
(1.71242 -0.0316204 0)
(1.77719 -0.0297127 5.17706e-19)
(1.83894 -0.027906 0)
(1.89777 -0.0261983 0)
(1.95379 -0.0245868 0)
(2.00709 -0.023054 -4.98459e-19)
(2.05776 -0.0215955 0)
(2.10585 -0.020203 4.90582e-19)
(2.15137 -0.0188516 0)
(2.1943 -0.0175147 0)
(2.2345 -0.0161704 0)
(2.27168 -0.0147485 0)
(2.30536 -0.0131475 0)
(2.33414 -0.0111774 0)
(2.35735 -0.00814247 0)
(2.36431 -0.00232847 -9.61401e-19)
(2.35789 0.0109815 0)
(2.24507 0.0299045 0)
(0.0113162 -0.0666599 1.33579e-18)
(0.0282335 -0.0651426 -5.69008e-19)
(0.0347437 -0.0493625 0)
(0.0386345 -0.0329748 1.66412e-19)
(0.0386695 -0.0167544 0)
(0.0348918 -0.00121181 6.37007e-20)
(0.027676 0.0131161 -1.19509e-19)
(0.0170118 0.0258359 -1.15753e-19)
(0.00272456 0.0367842 0)
(-0.0152491 0.0461171 -1.15252e-19)
(-0.0370859 0.0540313 -5.77365e-20)
(-0.0628103 0.0603948 0)
(-0.0920907 0.0662293 0)
(-0.12455 0.0729827 0)
(-0.159552 0.0811046 0)
(-0.200996 0.0887077 -6.71122e-20)
(-0.248451 0.0940028 0)
(-0.299453 0.101733 1.25267e-19)
(-0.351616 0.111717 0)
(-0.4045 0.122767 0)
(-0.458302 0.133286 -9.92955e-20)
(-0.51353 0.141944 0)
(-0.570369 0.148724 8.68658e-20)
(-0.629222 0.154055 -4.13824e-20)
(-0.689566 0.157781 3.94792e-20)
(-0.750285 0.160171 -3.77235e-20)
(-0.810979 0.161491 -3.60982e-20)
(-0.871179 0.161731 0)
(-0.930503 0.160871 0)
(-0.98865 0.158969 3.19377e-20)
(-1.04539 0.15613 -3.05264e-20)
(-1.10055 0.152498 0)
(-1.15402 0.148219 0)
(-1.20573 0.143451 2.78188e-20)
(-1.25566 0.138334 0)
(-1.3038 0.133009 0)
(-1.35018 0.127589 -2.55396e-20)
(-1.39484 0.12218 0)
(-1.43786 0.116855 2.41047e-20)
(-1.47929 0.11168 -4.7508e-20)
(-1.51921 0.106695 0)
(-1.55772 0.101935 0)
(-1.59487 0.097412 -8.8937e-20)
(-1.63077 0.0931401 -8.72787e-20)
(-1.66547 0.0891148 -8.57155e-20)
(-1.69906 0.0853374 4.19577e-20)
(-1.73161 0.0817937 -4.15695e-20)
(-1.76318 0.0784789 -1.22381e-19)
(-1.79383 0.0753752 8.02031e-20)
(-1.82362 0.0724751 3.96202e-20)
(-1.85261 0.0697594 0)
(-1.88085 0.0672199 -3.84326e-20)
(-1.9084 0.0648394 3.76263e-20)
(-1.93529 0.0626118 0)
(-1.96156 0.0605211 0)
(-1.98728 0.0585632 0)
(-2.01246 0.0567259 -3.57025e-20)
(-2.03716 0.0550082 0)
(-2.0614 0.0533991 6.91675e-20)
(-2.08523 0.0518988 0)
(-2.10868 0.0504989 6.71523e-20)
(-2.13178 0.0492017 0)
(-2.15457 0.0480007 -6.51548e-20)
(-2.17709 0.0468983 0)
(-2.19938 0.0458898 6.31644e-20)
(-2.22147 0.044978 -3.1033e-20)
(-2.24339 0.0441599 0)
(-2.2652 0.0434378 -6.01764e-20)
(-2.28692 0.0428095 -2.96336e-20)
(-2.3086 0.0422756 -2.91335e-20)
(-2.33028 0.0418355 0)
(-2.35199 0.041488 -2.80506e-20)
(-2.37378 0.0412317 -2.7641e-20)
(-2.39568 0.0410611 0)
(-2.41773 0.0409726 2.6656e-20)
(-2.43997 0.0409581 -5.22356e-20)
(-2.46242 0.0410161 0)
(-2.48511 0.0411376 -2.52026e-20)
(-2.50805 0.041317 0)
(-2.53126 0.0415387 7.26365e-20)
(-2.55476 0.0417999 0)
(-2.57854 0.0420853 -6.98506e-20)
(-2.60259 0.0423891 -2.28866e-20)
(-2.6269 0.0426877 2.22649e-20)
(-2.65145 0.0429748 4.36413e-20)
(-2.67619 0.0432278 -4.27741e-20)
(-2.70107 0.0434411 0)
(-2.72602 0.0435969 0)
(-2.75093 0.043693 0)
(-2.77569 0.0436931 1.19873e-19)
(-2.80022 0.0435418 3.94586e-20)
(-2.82443 0.043197 -3.87891e-20)
(-2.84814 0.0426258 0)
(-2.87117 0.0418128 -3.68387e-20)
(-2.89349 0.0407238 3.69298e-20)
(-2.91502 0.0393307 3.63521e-20)
(-2.93534 0.0376439 0)
(-2.95429 0.0357255 0)
(-2.97173 0.0333935 0)
(-2.9875 0.0307274 3.45929e-20)
(-3.00135 0.0276846 0)
(-3.01312 0.0242554 -6.73887e-20)
(-3.02276 0.0204532 -1.0049e-19)
(-3.03021 0.0162786 6.64599e-20)
(-3.03543 0.0117871 0)
(-3.0382 0.00704345 3.25246e-20)
(-3.03828 0.00228276 0)
(-3.03507 -0.00257756 6.49786e-20)
(-3.02832 -0.00754907 -3.19879e-20)
(-3.01755 -0.0128276 -3.17716e-20)
(-3.00245 -0.0182876 0)
(-2.98285 -0.0239495 -9.48707e-20)
(-2.95875 -0.0297794 6.24603e-20)
(-2.92965 -0.0357857 3.10378e-20)
(-2.89518 -0.0419305 0)
(-2.85557 -0.0481648 3.00276e-20)
(-2.81059 -0.0545163 8.77721e-20)
(-2.75977 -0.0609385 0)
(-2.70321 -0.0672565 5.51631e-20)
(-2.64102 -0.0735877 5.29718e-20)
(-2.57289 -0.0799018 5.04698e-20)
(-2.4989 -0.0861301 0)
(-2.41913 -0.0922464 0)
(-2.33352 -0.0981847 0)
(-2.24216 -0.103841 -1.83623e-20)
(-2.14522 -0.109224 -1.47458e-20)
(-2.04291 -0.114269 0)
(-1.93549 -0.118971 -1.87793e-20)
(-1.82329 -0.123272 -1.18451e-20)
(-1.70666 -0.127158 0)
(-1.58598 -0.130585 6.28262e-21)
(-1.4617 -0.133543 2.61389e-20)
(-1.33426 -0.136007 -2.53563e-20)
(-1.20414 -0.137979 -3.04234e-20)
(-1.07181 -0.139464 0)
(-0.93777 -0.140484 0)
(-0.802485 -0.141062 0)
(-0.666431 -0.14124 -8.49661e-20)
(-0.530063 -0.141056 9.19536e-20)
(-0.39378 -0.14056 2.19606e-19)
(-0.257962 -0.139811 -1.28492e-19)
(-0.122644 -0.138928 1.35398e-19)
(0.0124159 -0.138057 1.53261e-19)
(0.146293 -0.137353 0)
(0.277195 -0.135908 0)
(0.404122 -0.132709 -1.69e-19)
(0.527129 -0.128179 0)
(0.64677 -0.123071 0)
(0.763125 -0.11774 3.83378e-19)
(0.876029 -0.112355 0)
(0.985345 -0.107004 2.00224e-19)
(1.09098 -0.101746 -2.10018e-19)
(1.19287 -0.0966118 0)
(1.29102 -0.0916413 2.14263e-19)
(1.38545 -0.0868483 0)
(1.47617 -0.0822372 0)
(1.56329 -0.0778244 -2.28726e-19)
(1.64685 -0.0736219 4.59616e-19)
(1.72692 -0.0696047 -2.3403e-19)
(1.80361 -0.0657744 0)
(1.87705 -0.0621307 0)
(1.94733 -0.0586799 2.37811e-19)
(2.01457 -0.0554103 0)
(2.07886 -0.0523047 2.4148e-19)
(2.14032 -0.0493495 0)
(2.19905 -0.0465421 0)
(2.25514 -0.0438712 0)
(2.30866 -0.0413206 2.48889e-19)
(2.3597 -0.0388761 0)
(2.4083 -0.0365139 -2.50897e-19)
(2.45448 -0.0341928 0)
(2.49818 -0.0318585 0)
(2.5393 -0.0294291 5.06094e-19)
(2.57757 -0.0267766 -5.08159e-19)
(2.61255 -0.0236465 0)
(2.6433 -0.0196311 0)
(2.66887 -0.0134821 0)
(2.68586 -0.00276547 1.57464e-18)
(2.70281 0.0190075 0)
(2.6912 0.0585703 -1.08904e-18)
(0.00311867 -0.0954032 -1.02213e-21)
(0.0103005 -0.0773363 5.78599e-19)
(0.00781177 -0.0507432 0)
(0.0032085 -0.0263642 -2.4899e-19)
(-0.00444951 -0.00355675 0)
(-0.0150061 0.0179581 0)
(-0.0282921 0.0381884 7.63634e-23)
(-0.044404 0.0571276 7.95607e-20)
(-0.0635901 0.0747813 7.6845e-20)
(-0.0861123 0.0912101 7.54156e-20)
(-0.112172 0.106346 0)
(-0.1419 0.120231 0)
(-0.175347 0.133497 -7.20945e-20)
(-0.212191 0.146886 -1.42299e-19)
(-0.252076 0.160543 1.40549e-19)
(-0.295315 0.173663 0)
(-0.341896 0.18576 1.34098e-19)
(-0.391215 0.198111 -6.44748e-20)
(-0.442077 0.210547 0)
(-0.493515 0.222389 1.1661e-19)
(-0.544964 0.232904 5.55397e-20)
(-0.596616 0.241693 -1.0578e-19)
(-0.648837 0.248648 -5.07525e-20)
(-0.701405 0.253625 0)
(-0.753922 0.256646 9.35437e-20)
(-0.806162 0.257783 9.00331e-20)
(-0.857876 0.257182 0)
(-0.90879 0.254967 8.35802e-20)
(-0.958707 0.25129 0)
(-1.0075 0.24633 7.79174e-20)
(-1.0551 0.240292 3.77926e-20)
(-1.10145 0.233391 0)
(-1.14653 0.22584 0)
(-1.19034 0.21784 0)
(-1.23287 0.209571 0)
(-1.27415 0.201191 0)
(-1.31419 0.192834 0)
(-1.35304 0.184612 6.22131e-20)
(-1.39071 0.176609 -9.13461e-20)
(-1.42725 0.16889 0)
(-1.46268 0.161498 0)
(-1.49705 0.15446 0)
(-1.5304 0.14779 1.83442e-22)
(-1.56277 0.141493 5.53199e-20)
(-1.5942 0.135562 1.08556e-19)
(-1.62474 0.129988 -1.06746e-19)
(-1.65441 0.124757 -5.24272e-20)
(-1.68327 0.119854 5.17614e-20)
(-1.71135 0.115258 -1.52795e-22)
(-1.7387 0.110953 5.0048e-20)
(-1.76535 0.106919 0)
(-1.79134 0.103139 4.85923e-20)
(-1.8167 0.0995944 -1.29435e-22)
(-1.84148 0.0962717 0)
(-1.8657 0.0931557 0)
(-1.8894 0.0902349 -4.5883e-20)
(-1.91262 0.0874979 0)
(-1.93538 0.084937 0)
(-1.95771 0.0825434 4.3862e-20)
(-1.97964 0.0803118 8.66529e-20)
(-2.00122 0.0782363 -4.27844e-20)
(-2.02245 0.0763139 0)
(-2.04339 0.0745409 4.15278e-20)
(-2.06405 0.0729153 0)
(-2.08447 0.071435 4.01381e-20)
(-2.10469 0.0700989 3.9652e-20)
(-2.12473 0.068906 -7.79264e-20)
(-2.14463 0.0678552 -3.82776e-20)
(-2.16442 0.0669456 0)
(-2.18413 0.0661748 7.41874e-20)
(-2.20381 0.0655411 0)
(-2.22348 0.0650405 1.07608e-19)
(-2.24318 0.0646693 7.04533e-20)
(-2.26294 0.0644197 6.9214e-20)
(-2.28279 0.0642852 -6.79794e-20)
(-2.30276 0.0642553 1.00203e-19)
(-2.32288 0.0643225 0)
(-2.34316 0.0644728 0)
(-2.36363 0.0646931 -6.31194e-20)
(-2.3843 0.0649638 -9.29952e-20)
(-2.40517 0.0652706 0)
(-2.42625 0.065591 2.99115e-20)
(-2.44753 0.0659063 0)
(-2.469 0.0661889 -8.61586e-20)
(-2.49063 0.0664189 -2.61516e-22)
(-2.51239 0.066566 2.78338e-22)
(-2.53424 0.0666083 5.41812e-20)
(-2.55611 0.0665177 0)
(-2.57791 0.0662716 -5.22232e-20)
(-2.59955 0.0658248 -3.54257e-22)
(-2.62097 0.0651207 0)
(-2.6421 0.064105 0)
(-2.66281 0.0627365 0)
(-2.683 0.060974 4.83934e-20)
(-2.70257 0.0587825 0)
(-2.72139 0.0562247 0)
(-2.73919 0.053389 0)
(-2.75578 0.050087 0)
(-2.77111 0.0462226 0)
(-2.7849 0.0419228 4.45348e-20)
(-2.79713 0.0371561 0)
(-2.80745 0.0319141 4.42151e-20)
(-2.81592 0.0261799 4.38858e-20)
(-2.82213 0.020024 -4.36439e-20)
(-2.82605 0.0134493 0)
(-2.82712 0.00655113 -4.31145e-20)
(-2.82518 -0.000734032 0)
(-2.81983 -0.00850455 -4.25876e-20)
(-2.81096 -0.0166171 4.22736e-20)
(-2.79816 -0.0251147 1.25299e-19)
(-2.78117 -0.0339595 0)
(-2.75978 -0.0431627 1.23144e-19)
(-2.7338 -0.0526762 4.03798e-20)
(-2.70289 -0.0623671 0)
(-2.66681 -0.0723062 7.88448e-20)
(-2.62553 -0.0824514 7.73352e-20)
(-2.57888 -0.0926698 -1.13236e-19)
(-2.52654 -0.102957 0)
(-2.46853 -0.113238 -3.535e-20)
(-2.40477 -0.12345 -3.38531e-20)
(-2.33513 -0.13356 -9.70041e-20)
(-2.2597 -0.143499 0)
(-2.17847 -0.153185 0)
(-2.09145 -0.162526 0)
(-1.99874 -0.17141 -2.37525e-20)
(-1.90052 -0.17978 0)
(-1.79699 -0.187563 0)
(-1.68844 -0.194703 1.15714e-20)
(-1.57521 -0.201138 7.25669e-21)
(-1.45765 -0.20682 0)
(-1.33618 -0.211696 0)
(-1.21125 -0.21574 -1.57108e-20)
(-1.08332 -0.218926 0)
(-0.952891 -0.221251 3.93169e-20)
(-0.820451 -0.222726 4.85257e-20)
(-0.686501 -0.223385 0)
(-0.551531 -0.223269 0)
(-0.416016 -0.222437 -8.96182e-20)
(-0.280402 -0.22096 -4.19515e-21)
(-0.145054 -0.218951 -4.32075e-21)
(-0.0101691 -0.216546 0)
(0.123643 -0.213701 -2.91399e-19)
(0.255563 -0.210221 0)
(0.385033 -0.206107 0)
(0.511491 -0.201436 0)
(0.634523 -0.196087 1.89045e-19)
(0.754095 -0.189977 0)
(0.870313 -0.183297 -4.08177e-19)
(0.983149 -0.176277 -2.16451e-19)
(1.09251 -0.169085 0)
(1.1983 -0.161831 -2.32772e-19)
(1.30045 -0.154601 0)
(1.39895 -0.147456 0)
(1.4938 -0.140456 -7.57161e-19)
(1.58501 -0.133635 5.15914e-19)
(1.67263 -0.127012 0)
(1.75674 -0.120609 5.39271e-19)
(1.83739 -0.114459 -2.76972e-19)
(1.91468 -0.108558 0)
(1.98875 -0.102906 0)
(2.05967 -0.0975013 0)
(2.12758 -0.09235 -8.79413e-19)
(2.19256 -0.0874434 0)
(2.25473 -0.0827627 -3.01255e-19)
(2.31419 -0.0782956 0)
(2.37105 -0.0740348 0)
(2.42538 -0.0699642 0)
(2.47728 -0.0660653 0)
(2.52681 -0.0623167 0)
(2.57402 -0.0586764 0)
(2.61894 -0.055087 -6.37522e-19)
(2.66151 -0.0514665 0)
(2.70164 -0.0476883 -3.2399e-19)
(2.73911 -0.0435579 9.76854e-19)
(2.77358 -0.0387332 0)
(2.80436 -0.0326154 0)
(2.83087 -0.0239195 -6.6724e-19)
(2.85076 -0.0104119 -6.78112e-19)
(2.86886 0.0134866 6.81349e-19)
(2.87417 0.0576892 7.0445e-19)
(-0.00672162 -0.0983303 -1.77375e-18)
(-0.00873475 -0.067487 -7.03492e-19)
(-0.0185327 -0.0351692 -2.71055e-19)
(-0.0302549 -0.00562614 -9.90205e-20)
(-0.0441505 0.0220365 0)
(-0.0601472 0.0483354 1.42052e-19)
(-0.0782678 0.0734981 -6.47656e-20)
(-0.098641 0.0976191 0)
(-0.121446 0.12073 -5.82231e-20)
(-0.146836 0.142816 0)
(-0.174924 0.163808 1.09402e-19)
(-0.205837 0.183715 0)
(-0.239599 0.202742 5.22819e-20)
(-0.276019 0.22112 1.021e-19)
(-0.314811 0.238857 -9.95217e-20)
(-0.355762 0.255651 0)
(-0.398688 0.271248 -9.36857e-20)
(-0.443263 0.2858 0)
(-0.488939 0.299239 0)
(-0.535169 0.3113 -8.38096e-20)
(-0.581553 0.321658 0)
(-0.627877 0.330056 1.18933e-22)
(-0.67402 0.336311 0)
(-0.719843 0.340264 0)
(-0.765198 0.341883 -4.15206e-23)
(-0.809988 0.341278 -6.6818e-20)
(-0.854122 0.338635 -6.44632e-20)
(-0.897523 0.334171 -6.2334e-20)
(-0.94013 0.328135 0)
(-0.981895 0.320776 -1.16831e-19)
(-1.02279 0.312344 0)
(-1.0628 0.303077 -5.50017e-20)
(-1.10191 0.293202 0)
(-1.14011 0.282924 0)
(-1.17741 0.27243 5.07164e-20)
(-1.21379 0.261879 0)
(-1.24928 0.251408 -4.83213e-20)
(-1.28386 0.241126 -6.94357e-23)
(-1.31755 0.231119 9.25413e-20)
(-1.35036 0.221452 -9.05837e-20)
(-1.3823 0.212172 0)
(-1.41338 0.203306 0)
(-1.44362 0.194872 -4.27164e-20)
(-1.47303 0.186874 0)
(-1.50165 0.179311 -4.13946e-20)
(-1.5295 0.172173 4.07178e-20)
(-1.5566 0.165446 4.00705e-20)
(-1.58297 0.159113 0)
(-1.60865 0.153156 -3.88512e-20)
(-1.63367 0.147555 -3.82732e-20)
(-1.65804 0.142289 7.53221e-20)
(-1.68181 0.137339 -3.7168e-20)
(-1.70499 0.132686 -3.66364e-20)
(-1.72763 0.128313 0)
(-1.74974 0.124204 0)
(-1.77134 0.120344 3.51029e-20)
(-1.79248 0.116721 0)
(-1.81318 0.113325 0)
(-1.83345 0.110147 -6.72606e-20)
(-1.85333 0.107179 -6.62948e-20)
(-1.87285 0.104415 0)
(-1.89203 0.101851 0)
(-1.9109 0.0994835 0)
(-1.92949 0.0973091 0)
(-1.94782 0.0953259 -6.15137e-20)
(-1.96593 0.0935322 6.04981e-20)
(-1.98384 0.0919265 5.96057e-20)
(-2.00159 0.0905072 1.17235e-19)