/*--------------------------------*- C++ -*----------------------------------*\
  =========                 |
  \\      /  F ield         | OpenFOAM: The Open Source CFD Toolbox
   \\    /   O peration     | Website:  https://openfoam.org
    \\  /    A nd           | Version:  11
     \\/     M anipulation  |
\*---------------------------------------------------------------------------*/
FoamFile
{
    format      ascii;
    class       volScalarField;
    location    "1.3";
    object      gradTz;
}
// * * * * * * * * * * * * * * * * * * * * * * * * * * * * * * * * * * * * * //

dimensions      [0 -1 0 1 0 0 0];

internalField   nonuniform List<scalar> 
5712
(
7933.85
26019.4
6320.99
26664.3
4716.71
27480.2
7381.77
42048.4
9058.92
57728.3
9029.63
42232.4
8747.64
35158
9096.05
31474.3
5502
3464.69
14732.1
8813.13
5352.41
2902.73
15972.2
7937.09
6090.78
4502.21
19487.3
13929.9
4610.51
3406.78
19155.6
14122.8
10837.6
4616.81
9419.45
4239.94
4402.38
10206.2
36784
9903.84
13204.9
4358.71
47058.7
12674.1
12225.5
4083.23
26472.1
8173.34
13607.5
4682.76
23197.5
7341.93
7238.35
3589.48
10049
3964.2
7848.46
4228.97
9770.93
3804.37
9785.12
5610.51
8423.58
3718.27
12175
4420.57
4159.78
1465.91
13909.3
9804.17
8471.41
6265.55
15012.5
12396.7
8133.91
7033.36
8229.53
5702.06
11896.6
8184.43
5484.15
4057.89
2662.76
2193.43
5149.9
4441.85
2520.1
2451.37
5388.49
3603.45
2660.28
1722.25
7498.13
4121.63
5755.47
6822.96
10490.4
7492.23
8520.41
11826.2
4864.28
2335.92
3336.24
3857.62
2342.04
991.511
1389.2
1408.45
9917.83
17691.6
6657.71
19663.8
11502
17256.1
8130.7
20458.3
12904.6
15514.4
10343.8
19757.4
14107.6
16088
11266.5
11036.1
11909.8
16159.5
15703.9
16113.6
16893.7
24022.2
13159
10731
9721.7
10975.4
16755.3
20638
18578.3
23836.6
23149
18903.3
17641.1
23454.5
22593.9
16322.8
16052.4
21880.7
21678.2
11930.1
9537.07
11835.9
10574.4
13277.2
12280.8
14593.6
14357.2
19904.7
20760.8
11086.7
9880.63
11155.6
11252.1
11894.3
13179.9
13559.5
15778
17578.8
20948.5
9318.87
7352.84
6285.99
7873.76
12067.9
14436
8259.49
12894.9
5526.06
7110.88
8373.9
6971.56
1591.87
5163.95
711.952
1785.47
4157.93
8553.79
1427.45
2877.97
911.305
4513.3
400.129
1531.52
5535.13
5593.9
6316.32
4062.08
8868.41
7219.38
10431.5
7406.66
1441.82
3052.6
3144.9
1875.91
1662
2131.8
2336.62
1773.65
14970.7
9175.55
2928.6
16864.9
9782.82
3220.67
14379.8
9082.69
3101.99
16549.8
9784.61
3219.62
13218.5
8359.29
2768.66
16076.3
9795.73
3286.09
6530.36
3749.07
1086.07
8749.8
5829.68
2011.99
10711.1
7384.9
2549.17
12560.8
8218.88
2745.06
15862.5
10013.2
3494.8
7574.57
4480.34
1496.15
8490.87
6169.16
2346.71
10315.8
7618.22
2825.64
12799.4
9029.03
3258.55
16081.8
10191.6
3647.11
286.398
2045.09
2868.51
4162.28
2318.85
2633.73
5784.15
5462.5
599.846
993.99
640.024
1034.3
466.988
1372.61
845.254
1801.75
3140.47
1543.5
4018.8
2342.12
2100.71
3641.37
3391.16
679.241
6366.73
1357.31
-2254.94
338.888
1599.22
1032.61
986.369
749.93
9438.74
4092.46
2560.15
1513.52
9590.98
4238.49
3236.83
1916.7
9476.52
4538.99
4635.22
3085.03
3258.2
2230.82
1360.42
1301.28
12906.1
11390.8
6001.67
6190.72
14309.9
13362.8
7001.65
7017.55
5143.71
5257.54
10772.1
8885.51
3469.12
3648.7
1777.8
2109.05
4214.59
4185.37
2158.76
2362.27
2886.85
3154.96
1454.39
1934.25
4420.46
2891.54
4352.5
2861.14
7002.5
3829.28
6561.12
3993.32
2543.7
2041.62
2698.44
1806.09
1263.54
1186.15
1652.93
1015.66
10967.6
7145.67
5217.96
4992.6
10946.1
7408.81
5233.38
4974.14
11471.8
7903.23
5308.96
4877.1
14170.2
15784.3
12532.6
8073.66
4236.44
14972.7
13340.9
11937.2
9455.65
5586.55
13988.2
12230
9447.98
6965.24
3995.61
5617.11
4666.72
4990.39
5345.4
5948.29
4720.06
5109.61
5355.96
6473.05
4961.51
5275.29
5421.28
11291.8
8051.21
10069.6
6964.95
7565
5968.45
6711.91
5516.94
4973.74
5485.34
9406.09
8209.14
7979.66
6906.29
6498.28
5768.51
5385.47
5150.36
3873.87
5201.24
7117.46
4844.09
4691.45
2885.92
9632.56
7446.66
6626.43
5408.75
3662.07
2209.17
5350.07
3897.78
4635.14
2215.69
1590.71
901.271
5067.57
3706.08
1657.47
1383.99
3869.65
1707.46
1433.21
731.162
2829.42
2500.65
2252.84
3192.96
3971.52
3589.95
2866.74
4050.4
2901.03
1783.87
1655.81
2189.53
792.489
355.943
49.6525
331.241
3139.46
1317.94
389.967
3472.01
922.918
247.703
3273.27
1462.33
450.15
3523.15
978.884
275.883
3245.96
1540.49
408.403
3559.77
1028.19
248.096
5114.17
2723.14
680.935
4264.95
2134.18
545.248
3840.18
1878.8
525.725
3508.72
1658.62
378.077
3631.73
1040.47
171.589
6277.53
3286.44
945.575
5264.36
2661.01
757.973
4463.62
2224.61
656.814
3909.16
1711.83
439.902
3957.26
994.151
249.35
1515.88
524.113
121.355
-87.9196
632.344
228.336
65.9221
-12.664
1597.35
567.878
157.612
-44.1508
795.215
308.183
145.043
64.0987
1699.87
621.719
224.386
29.2247
1325.81
565.918
190.681
34.3849
962.688
487.267
120.5
-33.5612
832.709
493.1
238.601
119.793
1365.66
562.728
150.868
-103.916
1143.32
463.705
189.057
-90.9798
1638.36
603.894
197.081
-49.4262
1456.08
536.516
210.218
-145.082
1056.31
494.573
166.419
-39.2253
849.556
388.585
187.822
1.65842
729.613
403.142
205.702
108.753
551.404
304.993
181.355
92.4408
1900.61
632.615
135.496
-183.349
1827.84
578.006
191.914
-243.69
1895.07
637.951
146.396
-175.808
1772.67
561.212
195.144
-237.875
1853.43
634.177
201.936
-110.751
1660.77
529.199
225.382
-185.285
1620
578.642
254.423
23.7852
1819.86
587.208
302.041
-212.372
1424.04
507.983
244.446
-40.5562
1401.79
402.492
163.764
-153.673
547.349
145.334
44.1465
-26.2065
1462.93
430.259
175.775
-145.544
576.73
157.504
53.2402
-17.7017
1512.2
461.092
205.406
-123.287
598.515
171.462
64.0089
-8.08799
1373.64
432.706
228.32
-90.8397
589.551
176.756
83.7944
8.94102
1261.53
424.701
234.104
-42.9928
536.034
184.302
107.992
30.6379
849.582
319.41
143.521
-16.2791
492.03
221.905
118.739
55.8294
1000.29
339.467
167.373
-35.6796
508.671
202.871
115.064
44.4519
663.53
290.954
140.071
17.2588
421.142
218.407
117.888
66.3692
441.829
244.564
146.048
78.088
327.368
201.69
122.26
81.5959
-7.37462
2.79449
2.53001
1.507
0.989495
-0.782085
1.92896
1.41533
0.815523
0.531127
5.13505
8.46001
5.24696
2.90286
1.87049
12.8183
8.38613
4.5821
2.45581
1.56887
17.731
14.982
8.5104
4.60919
2.95399
48.0927
27.9367
14.6588
7.772
4.95459
55.0795
32.0945
16.938
9.02789
5.77493
80.1212
42.2013
21.6332
11.4526
7.3239
28.4126
21.5741
11.955
6.44894
4.13832
30.9385
20.3808
10.9889
5.89537
3.77873
20.2167
17.3212
9.68036
5.21619
3.33982
38.6537
21.7595
11.1579
5.88018
3.74022
36.318
25.3161
13.9102
7.50839
4.82456
41.5379
24.1747
12.7601
6.81609
4.36925
63.4089
33.8533
17.4156
9.23412
5.91007
53.0952
27.9282
14.3442
7.60947
4.87343
-14.6579
1.26781
1.85069
1.15071
0.762134
-8.18025
0.328081
0.697153
0.438766
0.290769
-6.43972
4.8601
3.5315
2.00411
1.29786
-5.19474
1.63305
1.30098
0.743185
0.481044
3.51964
8.82118
5.32712
2.91265
1.86823
6.33171
5.99168
3.26343
1.72822
1.09703
26.062
17.4158
9.17264
4.83295
3.06315
18.0211
11.2695
5.77514
3.01654
1.9055
48.7869
23.5523
11.5727
5.98622
3.77837
2158.95
4908.81
2230.63
4888.49
2494.56
4881.81
2953.04
5064.59
3036.57
5166.45
1285.94
1861.05
2038.87
3104.2
709.069
937.841
251.415
313.786
11021.8
2647.33
610.746
137.441
34.4606
3022.07
816.995
218.294
49.9775
10.9785
10837.7
2583.9
595.884
133.045
33.6173
3080.48
910.113
225.466
52.7656
13.2187
10250
2429.76
558.817
124.714
31.5732
2989.96
878.408
216.953
50.5139
12.7016
9265.64
2180.08
500.49
111.719
28.3197
2890.15
831.085
202.699
46.7958
11.7102
7640.67
1790.91
411.839
92.1503
23.4129
2702.67
756.933
182.774
41.9635
10.4784
3518.84
863.59
202.369
45.6989
11.6544
1312.66
373.466
89.6098
20.2455
5.04852
5307.2
1283.72
298.266
66.9689
17.0345
1932.58
542.589
131.125
30.0954
7.56731
2048.81
506.813
119.373
27.1042
6.93064
737.601
217.916
52.096
11.7755
2.9642
705.271
173.623
41.0276
9.35435
2.39503
291.036
79.2135
17.7627
4.93762
0.994487
-270.006
250.024
4773.98
-1083.74
782.904
838.928
2445.35
3138.9
1987.14
3733.96
3186.07
4915.44
3884.93
4817.47
2004.29
2694.75
2114.68
2509.96
1097.66
1141.36
2290
1597.99
660.78
-202.226
-472.545
-558.949
-13.3813
13867.6
3986.29
4835.58
3390.9
230.877
352.585
3300.96
-862.675
-326.232
-587.564
-339.701
7567.17
4153.68
1792.86
1335.87
3785.69
2255.99
802.394
1507.32
-1020.95
-453.636
948.521
812.936
8925.57
4281.95
5606.15
2953.32
4062.77
4884.3
1720.21
-484.018
1210.56
1555.22
1210.05
989.943
835.47
587.45
1230.89
960.016
724.006
490.62
203.281
575.471
470.799
349.381
216.748
74.0616
-180.467
-150.319
-111.844
-68.4932
-23.017
-421.225
-350.676
-261.17
-160.251
-53.9024
-498.973
-416.166
-310.581
-190.921
-64.2891
-10.0412
-4.8522
0.684451
3.53452
2.00464
9671.76
7883.12
6250.34
5192.88
4313.75
3271.11
2628.01
2208.52
1665.54
805.791
3630.28
2778.26
2163.63
1544.24
730.236
2516.18
1882.88
1482.41
1042.38
410.52
256.196
197.771
218.824
177.862
76.8141
365.824
355.153
308.865
218.978
82.8361
2721.73
2174.73
1621.85
1062.99
412.305
-469.641
-184.317
-38.7338
22.9275
18.6053
-245.464
-158.036
-79.2753
-25.7442
-2.46006
-378.15
-202.238
-77.3585
-11.5443
4.14595
-311.725
-260.899
-191.02
-113.651
-36.9606
5388.55
4580.47
3697.87
3114.01
2594.74
3147.31
2405.51
1867.77
1308.78
584.687
1577.21
1330.33
1039.69
690.479
256.631
1148.65
943.903
718.144
465.016
168.464
3112.4
2451.19
1802.35
1148.88
424.516
1958.56
1613.68
1221
780.197
274.916
690.032
563.615
423.197
268.725
94.7102
1311.11
1074.55
801.766
501.59
173.057
-880.514
-705.45
-505.649
-300.689
-99.1559
-399.074
-324.792
-234.114
-138.445
-45.2034
825.309
681.696
517.5
331.751
117.641
711.328
590.237
448.775
286.791
100.79
5630.06
3935.87
3167.18
2658.57
2092.1
3206.63
2422.14
1793.49
1212.99
516.069
4031.74
3171.86
2423.59
1748.73
792.831
2319.83
1834.2
1370.96
914.548
375.502
3405.04
2723.18
2018.83
1283.19
461.593
3663.29
2665.24
2029.37
1404.31
554.826
1483.69
1207.96
898.775
563.328
195.473
-429.963
-354.7
-260.03
-156.494
-51.7949
1044.26
858.599
652.177
420.291
150.031
-31224.8
-50679.7
-25951.6
-40972.1
-27560
-56981.6
-32926.2
-72418.3
-19885.1
-13717.7
-22139.2
-13947
-18235.6
-11809.9
-22353.7
-11945.8
-26076.4
-19847.7
-37652.3
-27356.8
-22436.2
-18069.6
-31400.6
-23782.3
-17847.1
-18417.4
-14728.4
-14322
-17509.8
-16295.3
-42564.9
-11762.4
-16415.4
-6199.83
-51725.6
-14420.3
-14664.3
-5581.75
-31889.4
-10046.4
-16811.2
-6485.79
-28513.8
-8836.43
-13699.4
-5543.51
-17264.2
-6282.56
-13036.4
-5767.15
-14986.8
-5455.94
-13485.3
-6608.66
-11978.7
-4790.58
-15177
-5388.74
-5313.3
-1874.38
-11481.3
-7858.19
-9905.22
-6193.94
-10019.6
-8175.75
-8642.19
-6240.83
-10138
-5960.3
-11932.8
-7708.23
-6809.62
-4176.26
-3685.95
-2338.76
-5884.48
-4123.05
-3121.49
-2274.72
-6936.1
-3901.81
-3820.99
-1997.78
-8992.33
-4593.14
-5979.09
-6821
-11481
-7755.17
-8467.11
-11573.1
-6071.71
-2736.58
-3583.92
-3919.66
-3252.45
-1314.19
-1617.41
-1483.31
-13664.9
-16818.5
-7761.26
-19137
-14208
-16045.8
-8921
-19550.5
-14347.3
-14569.7
-10626.6
-18561.9
-9692.74
-7777.08
-10762.6
-11999.7
-11992
-10540.1
-12372.1
-14540.4
-15826.4
-22448.3
-7394.5
-7812.75
-8592.88
-10369.4
-15930.6
-16085.4
-11260.3
-20483.7
-15835
-14915.3
-11076.8
-20183.5
-15783.3
-13195.5
-10388.6
-18844.2
-15650.5
-8604.86
-6859.06
-9167.23
-7404.69
-10347.4
-8498.26
-11470.4
-9857.04
-17145
-15753.6
-8023.78
-7017.97
-8364.74
-7530.74
-9375.85
-9058.3
-11316.7
-11492
-15692.7
-16428.8
-7475.74
-5971.84
-5506.58
-7006.61
-9031.11
-12101.9
-6839.96
-11200.7
-5164.35
-6613.45
-7366.67
-6041.75
-1233.02
-4649.52
-464.313
-1449.49
-3412.67
-7671.81
-907.479
-2257.58
-777.717
-4234.23
-324.913
-1357.1
-5338.22
-5260.86
-6131.3
-3780.09
-8253.31
-6470.77
-9924.17
-6634.87
-1380.73
-2884.06
-3058.29
-1735.62
-1641.25
-2032.71
-2287.62
-1687.15
-6865.11
-2361.22
-9309.21
-3170.19
-7021.37
-2469.8
-9532.7
-3414.72
-6979.86
-2435.33
-10074.2
-3864.14
-4099.02
-1191.26
-5226.77
-1982.41
-6024.16
-2319.07
-7319.95
-2752.66
-10662.3
-4221.27
-5113.63
-1607.5
-5011.65
-2392.47
-6141.79
-2833.45
-8190.06
-3517.1
-11147.9
-4203
-6894.24
-6423.91
-5386.85
-5216.14
-11570
-8869.25
-9519.23
-7879.87
-4506.39
-3718.68
-1871.83
-1295.24
-4305.47
-3971.56
-1792.17
-1783.95
-3478.15
-5058.14
-4016.15
-5440.46
-4047.16
-2904.25
-3838.98
-950.16
-7708.7
-2280.29
2241.57
-79.9962
-1364.62
-732.484
-198.566
157.837
-2384.02
-1507.85
-916.263
-490.758
-2594.02
-1620.68
-1435.3
-623.428
-2962.17
-1971.95
-2080.49
-982.451
-1583.91
-381.161
183.481
672.364
-5592.25
-5930.44
-4434.69
-4084.78
-7679.71
-7661.66
-6445.68
-5411.61
-2876.72
-3064.93
-4091.41
-4570.6
-2817.4
-2414.06
-1338.33
-1192.94
-4240.6
-3347.78
-2244.99
-1788.75
-1659.59
-1721.8
-525.397
-800.304
-1828.42
-1138.19
-2433.04
-1560.65
-2648.49
-1858.17
-3627.87
-2467.04
-837.038
-477.054
-1294.23
-666.561
130.893
305.412
-467.796
44.3812
-3303.64
-3924.37
-2519.31
-3508.19
-3309.95
-3996.22
-2579.83
-3503.14
-3581.64
-3819.46
-2743.98
-3346.79
-3325.81
-5482.16
-2689.9
-2103.94
-1898
-8038.43
-5574.43
-4773.49
-4453.08
-3899.04
-6483.86
-5250.54
-4179.8
-3556.69
-2408.06
-4406.27
-4204.34
-5175.36
-7868.18
-4277.16
-3865.4
-4993.89
-7536.05
-4104.23
-3766.26
-4645.57
-7008.95
-7638.22
-5835.89
-6582.47
-4932.14
-5372.66
-4152.1
-4980
-4357.85
-4363.75
-6482.1
-6185.26
-5774.79
-4982.24
-4858.57
-4125.18
-4175.97
-3797.66
-4286.07
-2954.98
-5550.64
-4106.21
-2928.78
-2907.97
-1250.02
-6157.8
-5330.58
-4811.22
-3655.34
-2098.65
-806.421
-3066.31
-2344.7
-3423.49
-1185.67
-648.515
-64.7109
-3983.07
-2682.31
-880.398
-581.419
-2695.07
-783.99
-440.623
49.3721
-1651.62
-1542.57
-1537.47
-2782.21
-2478.26
-2589.11
-2135.54
-3817.19
-1895.42
-1073.2
-911.318
-1743.62
140.516
302.89
714.153
172.995
-2960.21
-869.224
-5211.56
-474.791
-2823.42
-957.126
-5094.52
-497.631
-2294.5
-622.909
-4641.67
-357.434
-3262.3
-790.147
-2808.06
-694.573
-2744.32
-841.216
-2543.51
-495.67
-4371.29
-511.356
-4341.44
-934.472
-3688.32
-644.115
-3375.1
-667.316
-3340.73
-488.911
-4595.75
-554.471
-652.4
-173.048
54.5582
201.133
-230.909
-56.2035
17.0432
58.8623
-657.813
-157.926
55.2121
179.729
-190.932
-18.5405
-1.49569
13.259
-689.469
-141.981
35.4509
135.759
-137.129
79.7844
180.636
192.819
290.14
251.027
316.876
294.824
649.398
420.191
298.757
191.773
-371.505
-2.85348
189.012
327.822
-295.483
46.6698
126.133
311.488
-732.622
-132.463
79.8025
241.582
-568.1
-37.5908
93.808
383.269
-13.462
134.713
209.801
270.078
-38.3608
125.462
136.714
216.194
354.038
274.595
209.086
146.3
243.811
212.305
151.944
131.143
-987.171
-260.156
60.4762
334.491
-1179.47
-283.137
-49.6309
405.986
-955.335
-237.234
70.0776
341.665
-1138.99
-265.965
-48.5196
403.057
-901.485
-201.411
26.8972
278.4
-1045.45
-233.286
-76.1337
355.66
-622.719
-96.4854
11.0306
170.092
-1094.38
-217.769
-102.591
436.027
-578.01
-53.1708
32.2342
278.434
-1060.91
-208.721
-70.682
273.628
-454.763
-78.3742
-2.80593
65.2003
-1000.1
-187.604
-60.2345
275.391
-435.78
-71.613
-2.53444
62.5559
-874.16
-145.04
-61.4096
264.445
-377.454
-53.6346
4.22461
65.0491
-731.645
-106.949
-77.9913
231.611
-315.539
-35.294
-1.43277
59.4122
-557.716
-48.3882
-45.2337
194.56
-176.66
7.04347
1.2627
55.6728
-283.815
39.2439
85.8264
196.97
29.6734
102.482
79.9371
90.5337
-466.446
-24.4556
23.2605
195.582
-46.0184
60.5631
40.5067
73.0975
-54.1141
112.164
121.587
179.064
113.667
139.505
109.375
99.0221
187.054
181.114
131.106
125.437
211.035
173.148
118.177
91.8545
41.726
10.5583
3.52053
1.56105
0.946426
17.2373
4.96843
1.79545
0.826681
0.507802
46.8126
14.5515
5.80482
2.81997
1.7651
25.5039
10.1046
4.56569
2.32698
1.47866
56.8698
20.0736
8.74569
4.4059
2.79021
65.2706
29.0729
14.0446
7.33289
4.69191
73.9243
34.1486
16.6988
8.73478
5.58531
81.5902
41.8652
21.2845
11.2617
7.216
69.026
26.348
12.0498
6.17031
3.91981
58.1991
23.1869
10.8092
5.56379
3.53995
62.2636
21.8065
9.70598
4.93781
3.13578
49.789
21.053
10.2065
5.3361
3.4184
74.0753
30.4335
14.2617
7.35047
4.67635
58.4208
26.1201
12.6455
6.58539
4.20058
68.1483
34.1821
17.2663
9.11754
5.83836
56.5783
28.2777
14.2489
7.51499
4.80928
46.6602
9.62191
2.89239
1.227
0.733189
21.9782
3.95581
1.1308
0.4735
0.282292
48.9278
11.894
4.25484
1.98859
1.23103
22.763
4.76139
1.61951
0.747966
0.462236
49.2019
14.0305
5.68646
2.80543
1.76815
23.8394
7.29907
3.19267
1.6314
1.04052
52.6197
19.0524
8.80776
4.5689
2.92874
30.5639
11.1859
5.29903
2.773
1.78352
41.6593
20.2561
10.2759
5.4765
3.5341
-2110.93
-4058.6
-2195.54
-4083.87
-2432.06
-4143.81
-2708.4
-4284.53
-2645.55
-4321.94
-1122.18
-1654.17
-1777.38
-2689.84
-597.167
-820.599
-166.608
-235.574
-10582
-2534.57
-584.151
-131.467
-32.9973
-2861.57
-780.127
-208.7
-47.7925
-10.5092
-10380.7
-2470.92
-569.733
-127.288
-32.207
-2919.66
-868.854
-215.428
-50.4371
-12.6479
-9779.89
-2320.19
-534.282
-119.416
-30.2884
-2827.68
-836.672
-206.98
-48.25
-12.1505
-8822.39
-2082.41
-479.264
-107.21
-27.2379
-2714.46
-788.371
-192.97
-44.6595
-11.2007
-7303.62
-1718.18
-396.141
-88.8269
-22.6182
-2520.92
-716.083
-173.884
-40.0664
-10.0333
-3434.02
-841.967
-197.226
-44.5466
-11.3686
-1225.39
-351.564
-84.6592
-19.1835
-4.79699
-5128.67
-1241.58
-288.789
-64.922
-16.5406
-1798.66
-512.076
-124.496
-28.6913
-7.23845
-2008.57
-496.083
-116.68
-26.4749
-6.76883
-683.68
-202.963
-48.4626
-10.9592
-2.76275
-682.269
-167.359
-39.3918
-8.95778
-2.28977
-254.15
-68.2117
-14.901
-4.25936
-0.821442
-363.275
-1634.18
-6397.64
363.032
-7228.18
-3193.8
-7029.3
-3297.28
-12855.8
-6871.08
-14359.2
-7589.72
-97.1349
-334.065
-519.576
-612.793
-536.067
-132.75
-160.501
-537.952
-818.479
-920.562
-749.788
-212.561
-79.3106
-80.9998
-259.908
-258.436
-368.069
-366.378
-347.728
-342.744
-295.403
-314.181
-182.604
-213.976
847.583
2041.31
3323.18
2363.81
2131.37
960.56
730.338
2008.85
3293.03
3856.75
3215.2
1403.5
-87.4132
-73.6975
-55.6877
-34.6191
-11.739
-300.961
-254.093
-192.29
-119.692
-40.6156
-467.965
-394.971
-298.818
-185.963
-63.0976
-551.682
-465.388
-351.908
-218.914
-74.2614
-482.794
-407.403
-308.098
-191.644
-65.0025
-122.752
-106.325
-82.0116
-51.5247
-17.52
-144.284
-121.492
-91.6896
-56.947
-19.3007
-484.087
-408.153
-308.475
-191.825
-65.0603
-736.043
-620.135
-468.38
-291.133
-98.7222
-826.865
-695.735
-524.852
-325.97
-110.494
-672.679
-565.273
-425.952
-264.352
-89.5813
-192.288
-162.968
-123.628
-77.0019
-26.1211
-71.4439
-60.3065
-45.6254
-28.3914
-9.63233
-73.0113
-61.6772
-46.6999
-29.0789
-9.86914
-234.318
-197.994
-149.962
-93.4046
-31.7062
-233.041
-196.966
-149.221
-92.9623
-31.5596
-331.766
-280.27
-212.228
-132.163
-44.8584
-330.184
-278.875
-211.126
-131.454
-44.6136
-313.529
-264.944
-200.664
-124.971
-42.4172
-308.67
-260.479
-197.019
-122.58
-41.5848
-266.635
-225.519
-170.869
-106.398
-36.1015
-282.543
-237.997
-179.658
-111.591
-37.82
-166.245
-141.702
-107.853
-67.2059
-22.7765
-192.567
-162.229
-122.361
-75.8851
-25.685
746.319
615.501
457.395
282.156
95.6079
1787.34
1467.91
1089.41
673.332
229.08
2869.66
2334.52
1728.59
1074.85
370.405
2024.65
1641.35
1217.9
761.052
263.279
1856.58
1509.25
1115.24
687.305
223.792
864.209
717.664
538.632
333.782
106.4
644.007
531.781
395.412
243.866
82.5817
1765.31
1453.93
1080.19
666.931
226.341
2871.94
2351.31
1742.67
1077.79
367.381
3336.89
2715.96
2009.17
1245.55
426.721
2779.69
2260.04
1671.61
1036.63
354.057
1225.44
1006.29
751.107
468.641
160.123
157.26
397.303
588.102
687.901
617.868
230.538
248.603
629.181
912.333
1010.37
824.688
268.299
124.743
118.652
307.279
299.042
417.232
409.957
395.384
382.59
349.894
324.436
290.686
253.619
-725.671
-1858.78
-3012.28
-1960.3
-1668.78
-471.357
-680.741
-1933.35
-3130.02
-3568.57
-2806.4
-919.523
141.977
120.183
91.2039
56.8995
19.3326
358.38
303.045
229.717
143.185
48.6251
530.25
448.137
339.521
211.541
71.8232
620.044
523.841
396.739
247.126
83.8938
557.378
471.315
357.224
222.614
75.5866
211.867
182.638
140.625
88.4489
30.1327
224.281
189.693
143.835
89.6793
30.4602
566.985
478.893
362.615
225.837
76.6615
821.443
693.131
524.345
326.342
110.742
908.727
765.861
578.74
359.936
122.102
741.076
623.992
471.175
292.91
99.3507
243.117
206.531
157.118
98.1164
33.337
112.658
95.4032
72.4272
45.1983
15.3591
107.163
90.7542
68.9003
42.9982
14.6116
277.315
234.635
177.963
110.975
37.6953
269.899
228.377
173.228
108.026
36.6945
376.435
318.383
241.392
150.482
51.1064
369.798
312.694
237.02
147.727
50.1653
356.881
301.988
229.056
142.829
48.512
344.963
291.541
220.865
137.598
46.7146
316.395
268.237
203.767
127.17
43.2062
292.461
247.08
187.096
116.508
39.5432
264.8
226.161
172.779
108.14
36.7659
229.13
193.988
147.107
91.6532
31.105
-635.606
-521.103
-385.241
-236.905
-80.1981
-1621.89
-1327.14
-982.09
-606.249
-206.312
-2585.7
-2090.53
-1540.81
-956.712
-330.268
-1644.09
-1303.19
-948.476
-585.874
-201.94
-1413.64
-1111.17
-793.907
-474.846
-147.604
-393.428
-292.232
-193.227
-104.097
-23.9438
-599.189
-493.794
-366.56
-225.872
-76.4754
-1697.36
-1396.61
-1036.9
-640.093
-217.277
-2723.43
-2224.16
-1645.1
-1016.47
-346.507
-3070.32
-2483.73
-1827.65
-1129.51
-386.702
-2397.4
-1923.28
-1405.26
-864.306
-293.965
-770.633
-603.556
-430.845
-260.382
-87.2661
-1643.08
-1041.33
-401.983
419.45
703.883
887.909
335.215
-11530.6
-2121.28
-3494.73
-1639.19
78.2234
-3911.22
628.607
2161.88
954.198
-6315.06
-3007.51
-780.984
-755.919
-3407.38
-1484.89
-424.851
-1116.94
1733.95
981.233
-628.697
-350.717
-8093.22
-3719.24
-4602.02
-2268.12
-3532.38
-3725.79
-1247
976.785
-617.753
-855.063
-552.607
-426.28
-434.772
-424.533
-674.518
-444.111
-293.988
-195.667
-92.4227
-339.286
-268.23
-193.622
-118.605
-40.5586
379.692
322.179
244.818
152.763
51.9032
633.08
533.128
402.117
249.469
84.4629
798.494
672.446
507.346
314.901
106.657
306.706
262.137
199.3
123.583
41.6219
-7914.93
-6591.22
-5431.93
-4941.18
-4680.82
-1371.19
-869.521
-821.676
-805.349
-519.389
-2431.03
-1730.63
-1359.05
-1055.46
-586.166
-1048.52
-662.639
-546.044
-438.783
-183.921
86.0718
76.7936
50.3271
19.0828
0.295645
-3193.46
-2532.87
-1871.84
-1216.79
-469.159
571.873
479.797
354.341
212.153
68.6096
1859.62
1499.51
1093.3
665.569
223.897
852.94
710.763
529.251
324.323
108.669
-4227.87
-3636.22
-3021.81
-2776.43
-2636.79
-2068.16
-1450.11
-1121.76
-843.149
-436.674
-618.732
-482.069
-371.979
-264.525
-111.59
-609.592
-473.505
-351.737
-232.889
-89.608
-2792.42
-2197.11
-1623.09
-1047.25
-394.962
-1234.71
-975.843
-719.502
-459.338
-164.407
-341.039
-259.931
-186.521
-118.155
-43.1151
-953.148
-766.245
-564.144
-351.889
-122.066
1538.37
1276.16
949.649
583.518
196.443
883.259
742.773
557.82
343.809
115.648
-520.908
-410.523
-302.752
-193.973
-70.3922
-282.857
-217.037
-158.097
-102.103
-37.5713
-4850.5
-3238.37
-2611.84
-2317.69
-2024.98
-2670.56
-1939.63
-1404.49
-957.863
-426.503
-3033.53
-2283.76
-1706.39
-1282.94
-615.901
-1671.07
-1253.86
-907.418
-614.155
-272.805
-2916.23
-2298.92
-1690.33
-1076.37
-391.686
-2592.1
-1711.74
-1286.56
-938.787
-399.289
-1050.74
-835.687
-612.191
-382.971
-134.117
880.827
742.586
559.376
345.826
116.615
-492.905
-376.679
-275.773
-180.826
-68.076
-1.64839
20.4801
47.9989
49.4251
-8.58851
-133.26
-22291.5
-19716.9
-18635.2
-21211.3
-16404.2
-13035.5
-14655.1
-11164.6
-19539.5
-17285.3
-18025.8
-17082.6
-15863.6
-13572.9
-16720.6
-18465.4
-16545.1
-15071.2
-16963.6
-13955
-11835.5
-12355.3
-9928.09
-17639.2
-15843.6
-16280.8
-14974.6
-14148.4
-13195.3
-13736.8
-14616.2
-13424.2
-11993.9
-13104.2
-11685.9
-10071.7
-10362
-8897.75
-14863.5
-13703
-13855.5
-12831.1
-12094
-11179.9
-11656.9
-10311.9
-9717.96
-8514.58
-9024.58
-8742.85
-7861.75
-7734.44
-7055.21
-10845.9
-11015.9
-10246.7
-10401
-9173.15
-8317.17
-9269.6
-6638.2
-6352.88
-5498.13
-5736.41
-5882.41
-5339
-5120.82
-4723.77
-7218.77
-7258.04
-6900.94
-6814.27
-6303.28
-5711.61
-6211.03
-2397.32
-2314.12
-1992.15
-2062.95
-2177.42
-2033.77
-1879.49
-1750.73
-2727.74
-2746.19
-2562.35
-2471.79
-2369.06
-2176.37
-2340.89
-8285.09
-8151.49
-12519.1
-13496.9
-7766.23
-6889.75
-10980.7
-8930.69
-6264.62
-4466.74
-6232.05
-4475.28
-6242.6
-6009.16
-4598.88
-8221.19
-7799.73
-11164.2
-12166.6
-7239.36
-6541.76
-9717.5
-8349.43
-6201.31
-3812.79
-6103.81
-4071.26
-5574.81
-5389.68
-4512.33
-7448.63
-7093.96
-9457.68
-10141.2
-6657.19
-6175.22
-8460.36
-7467.44
-5055.42
-3978
-5046.55
-4260.41
-4701.36
-4733.85
-4501.1
-5935.67
-5706.69
-7068.15
-7428.26
-5411.4
-5045.3
-6535.01
-5946.72
-4702.17
-3453.41
-4630.47
-3736.99
-4325.94
-4322.31
-3905.25
-4049.03
-3917.36
-4657.47
-4838.51
-3645.71
-3364.89
-4382.77
-4014.82
-3236.08
-2586.59
-3173.11
-2770.2
-2971.6
-2940.65
-2725.22
-1497.73
-1451.26
-1698.73
-1756.01
-1346.16
-1235.15
-1609.24
-1480.49
-1056.98
-938.662
-1125.31
-1042.43
-1093.23
-1071.39
-987.689
7898.27
25485.2
6286.69
26662.6
4699.03
27482.5
7377.14
42057.2
9053.52
57740.6
9011.66
42228.6
8710.62
35139.3
9071.1
30797.6
5494.21
3462.86
14733.1
8813.3
5350.71
2902.51
15975.7
7938.32
6052.75
4471.78
19098.6
13670.4
4587.95
3397.31
19172.1
14142.7
10844.5
4609.61
9420.06
4237.4
4397.32
10215.1
36794.1
9905.21
13207.2
4358.71
47069.7
12676.4
12227.9
4083.87
26486.1
8175.88
13611.5
4683.38
23216
7345.27
7172.14
3556.85
9875.9
3898.72
7849.29
4229.73
9787.1
3810.52
9784.19
5610.78
8428.9
3720.82
12185.2
4424.42
4162.23
1466.87
13908.2
9803.44
8471.24
6265.35
15010.7
12395.4
8134.04
7033.17
8229.73
5702.06
11895.9
8184.16
5484.56
4057.9
2662.33
2193.21
5150.56
4441.97
2520.1
2451.34
5389.4
3603.55
2660.02
1722.04
7499.13
4122.27
5755.7
6823.31
10490.3
7492.62
8520.55
11826.7
4865.81
2336.58
3336.45
3857.85
2342.21
991.629
1389.1
1408.47
9864.97
17690.3
6619.49
19658.8
11504.3
17251.5
8134.84
20454.9
12904.8
15513.3
10344.9
19756.7
14106.6
16085.7
11266.1
11036.6
11910.7
16157.4
15702.6
16112.7
16893.3
24022.4
13157.2
10730.1
9721.31
10975.4
16755.9
20671.1
18628.7
23849.6
23129.7
18894.9
17635
23444.8
22588.1
16319.7
16048.2
21879.2
21676.3
11928.6
9535.96
11834.7
10573.2
13275.9
12279.3
14591.9
14355.1
19904
20759.7
11085.5
9879.53
11154.7
11251.1
11893.5
13178.8
13558.9
15777
17578.9
20948
9318.35
7352.57
6285.78
7873.71
12066.8
14435.2
8259.04
12894.4
5526.02
7111
8373.65
6971.48
1591.73
5163.94
711.848
1785.43
4157.78
8553.58
1427.43
2877.92
911.214
4513.37
400.007
1531.49
5535.26
5594.04
6316.58
4062.19
8868.44
7219.44
10431.8
7406.76
1441.83
3052.67
3145.02
1875.95
1661.98
2131.83
2336.67
1773.67
15006.5
9194.82
2940.47
16876.2
9796.38
3225.24
14375.4
9081.65
3101.98
16546.1
9782.74
3219.47
13215.5
8357.89
2768.33
16074.2
9794.24
3285.7
6529.52
3748.53
1085.89
8748.75
5828.95
2011.75
10709.7
7383.95
2548.86
12558.9
8217.68
2744.7
15861.2
10012.1
3494.41
7573.69
4479.75
1495.94
8489.84
6168.37
2346.41
10314.7
7617.29
2825.28
12798.2
9028.02
3258.16
16080.8
10190.7
3646.71
292.088
2047.27
2883.63
4166.98
2321.33
2634.87
5792.58
5465.21
582.932
982.132
620.87
1018.35
471.313
1371.99
849.716
1800.71
3153.25
1548.89
4023.63
2343.45
2104.39
3649.63
3396.12
683.325
6369.72
1359.38
-2242.3
347.676
1605.23
1038.04
996.589
758.075
9452.89
4091.03
2550.77
1507.58
9581.64
4238.04
3234.45
1916.38
9471.2
4537.8
4636.63
3084.59
3262.39
2231.32
1365.57
1303.1
12902.2
11388.7
6002.67
6190.77
14307.1
13360.9
7002.22
7017.52
5144.76
5257.52
10768.3
8883.63
3471.38
3649.3
1779.63
2109.65
4215.96
4185.75
2159.61
2362.56
2889.41
3155.55
1456.77
1934.96
4420.83
2891.49
4352.36
2861.01
6999.94
3828.48
6559.76
3992.67
2545.55
2042.16
2698.87
1806.32
1265.74
1187.19
1653.57
1016.11
10997.4
7148.57
5221.26
4992.71
10937.4
7407.92
5231.81
4973.73
11463.6
7899.62
5307.04
4875.74
14164.9
15780.4
12527.2
8069.91
4235.23
14969.6
13336.8
11932.7
9451.85
5585.02
13985.6
12227
9445.35
6963.31
3994.77
5613.18
4664.87
4986.88
5340.15
5946.64
4720.03
5107.4
5354.95
6470.93
4960.26
5274.27
5420.56
11289.8
8049.96
10067
6963.47
7562.47
5966.94
6709.7
5515.53
4972.59
5484.38
9404.42
8207.86
7977.6
6904.82
6496.31
5767.09
5383.9
5149.15
3873
5200.29
7115.76
4843.03
4690.89
2885.43
9631.04
7445.65
6625.88
5408.23
3661.6
2208.77
5348.64
3896.85
4635.1
2215.54
1590.97
901.379
5067.49
3705.9
1657.61
1384.03
3869.62
1707.35
1433.52
731.294
2829.06
2500.25
2252.6
3192.55
3970.51
3589.17
2866.2
4049.72
2901
1783.75
1655.83
2189.37
792.807
356.087
49.9451
331.359
3139.57
1319.66
391.2
3474.31
927.66
248.864
3272.51
1462.56
450.196
3521.62
977.941
275.909
3245.2
1540.27
408.391
3559.12
1027.77
248.008
5113.38
2722.69
680.792
4264.12
2133.76
545.123
3839.34
1878.42
525.618
3507.9
1658.28
377.981
3631.09
1040.19
171.509
6276.64
3285.94
945.404
5263.42
2660.55
757.825
4462.73
2224.18
656.686
3908.37
1711.47
439.791
3956.6
993.95
249.293
1510.34
521.236
119.903
-88.3562
626.447
225.657
64.8859
-13.0061
1597.53
567.91
157.59
-44.2458
795.249
308.178
144.97
64.0011
1699.72
621.674
224.354
29.162
1325.61
565.835
190.622
34.3076
962.72
487.256
120.492
-33.5802
833.235
493.295
238.681
119.818
1365.63
562.725
150.872
-103.923
1143.33
463.724
189.069
-90.9614
1638.15
603.835
197.06
-49.4529
1455.92
536.471
210.198
-145.083
1056.48
494.647
166.46
-39.2059
849.696
388.664
187.864
1.68554
730.018
403.319
205.786
108.788
551.66
305.128
181.429
92.4819
1900.09
631.987
134.512
-184.041
1829.79
578.554
191.696
-244.594
1894.6
637.735
146.331
-175.889
1772.26
561.049
195.145
-237.889
1853
634.024
201.885
-110.788
1660.33
529.049
225.344
-185.294
1619.64
578.499
254.348
23.7191
1819.44
587.074
301.985
-212.382
1423.8
507.9
244.393
-40.614
1406.09
404.057
164.319
-154.78
549.983
146.177
44.3265
-26.5998
1460.97
429.617
175.575
-145.444
575.909
157.243
53.1281
-17.6562
1511.65
460.854
205.33
-123.295
598.24
171.345
63.9562
-8.09373
1373.26
432.56
228.258
-90.8503
589.369
176.678
83.7534
8.91983
1261.26
424.603
234.052
-43.0067
535.909
184.247
107.955
30.6111
849.56
319.423
143.529
-16.2686
492.031
221.909
118.734
55.8209
1000.15
339.433
167.355
-35.6817
508.602
202.838
115.037
44.4284
663.617
291.017
140.107
17.2858
421.223
218.457
117.913
66.3823
442.008
244.673
146.11
78.13
327.515
201.783
122.313
81.6302
-7.849
2.54434
2.40777
1.44485
0.950994
-1.08008
1.77003
1.33603
0.774737
0.505579
5.12693
8.45865
5.24624
2.90247
1.87038
12.8101
8.38367
4.58047
2.4547
1.5681
17.7143
14.9752
8.50618
4.60638
2.95196
48.0633
27.921
14.6482
7.76489
4.94943
55.0662
32.0855
16.9311
9.02289
5.77106
80.1301
42.2042
21.6334