/*--------------------------------*- C++ -*----------------------------------*\
  =========                 |
  \\      /  F ield         | OpenFOAM: The Open Source CFD Toolbox
   \\    /   O peration     | Website:  https://openfoam.org
    \\  /    A nd           | Version:  11
     \\/     M anipulation  |
\*---------------------------------------------------------------------------*/
FoamFile
{
    format      ascii;
    class       volScalarField;
    location    "1.3";
    object      gradTy;
}
// * * * * * * * * * * * * * * * * * * * * * * * * * * * * * * * * * * * * * //

dimensions      [0 -1 0 1 0 0 0];

internalField   nonuniform List<scalar> 
5712
(
12494
7208.47
20172.6
13277.1
22065
16379.8
34448.8
42992.6
45388.3
55839
29442.2
25666.6
18682.5
14873.2
9408.95
6374.11
20712.9
20932.7
17958
20959.6
27969.3
24682.9
32551.5
26050.1
8738.51
6210.41
4939.35
3688.9
10374.3
8413.51
6357.26
5189.4
19360.9
19872.4
19553
16131.2
14942.6
11909
11906.2
13596.2
19148.7
19138.6
40571.8
42043
28452.1
29420.8
16611.7
14011.5
17883
12707.5
8320.51
8607.29
7000.99
10291.6
3676.96
4572.06
9561.24
13681.5
5740.37
6847.12
10461.8
18405.4
7306.89
12286.7
2763.04
7257.36
2302.65
5396.18
18323.3
22744.2
19152.9
22797.2
22309
22436.6
22965.2
22302.8
16468.3
22457.8
16712
22082
18978.1
22729.6
19036.7
22728.6
23304.4
22112.8
23305.7
21953.6
15293
22607.7
14809.7
22724.3
19143
22950.2
24165.3
34416.5
20305.7
26769.2
23977.2
37716.3
18139.3
20082.8
24239.5
32930
17956.9
18746.8
24503.2
32624.5
6205.6
8271.61
15957.7
28481
7582.94
8749.42
20293.3
31964.4
9262.54
9399.83
25368
34994.1
25413
26655.1
22091.3
21906.3
33044.9
26664
25656.6
22449.3
19877.8
38196.4
24381.9
24493.1
22326.1
22973
43024.4
2324.52
2815.26
5089.5
12137
3264.39
3763.62
6875.93
13307.1
4766.75
4058.28
9168.74
14862
26008.7
25022.9
23834.5
22779.1
21073.9
18658.2
16231.8
14060.2
11866.7
17052.5
23874.1
22511.4
24491
23581.1
21763.5
19999.1
18493.1
16369.8
12553
16960.8
24527.6
27453.8
24543.1
28264
23337.3
23921.1
22881.9
24259.1
22745.8
23063.8
22533.7
22339
24390.3
28436.9
24322.6
28461.1
22270.7
24645.5
22129.3
24637.7
22836.9
23012.1
22860.5
23023.1
19469.2
18480.2
12662.9
14228.8
19369.4
18041.2
12504.2
14427.4
19713.9
18394.4
12923.4
14221.1
19796.4
18203.7
13322.3
14206
1815.2
1153.62
763.277
1008.87
639.32
587.064
2553.49
1396.73
1005.32
1949.08
1488.89
1226.2
2842.97
2154.23
2072.36
3386.34
2625.81
2285.71
22970
19768.8
17674.8
21465.5
19028.2
17267.3
15605.8
13831.3
12840.7
10937
8938.49
8061.41
5201.06
3578.77
2917.97
20993.1
18472.9
16567.9
21981.4
19018.1
16912.7
16615.3
13454.3
11709.6
11056.1
8270.88
7118.75
5502.62
3535.78
2720.6
28034.6
27184.6
30754.5
27351.5
31709
27367.1
38592.3
29042.3
21467.1
21498.6
21276.5
19537
24123
22432.7
23810.5
20133.3
23570.9
23218.2
21660.9
22969.5
28422.7
25762.7
28970.1
29514.9
31725.7
32930.3
23988
24985.8
21470.3
20891.3
25913.3
26661.5
16491.9
8919.88
15513.9
9866.44
16769.7
9000.72
15508.8
9809.27
16565.5
9039.43
15502.6
10223.4
15133.6
10695.7
15346.2
10598.9
21488.4
18120.3
21548.6
18209
23908.5
21394.3
24357.3
21315
20954.8
15024.3
21675.5
14733.4
22155.6
18191.1
22499.4
18007.3
25133.7
21224.1
25224.5
20987.7
20864.9
15120.4
20855.6
15036.9
13602.8
9066.88
11793.4
7702.45
12576.2
8113.05
11271.6
7198.29
13998.1
9634.1
12017
7939.2
14041.9
9965.22
11992.1
7994.22
2590.08
1357.16
4806.05
2706.35
2752.37
1642.63
5108.45
3188.31
3362.8
2444.47
5634.33
4088.52
12887.2
20233.5
9264.43
8884.9
6466.38
19651.5
13479.2
7820.17
7873.08
5336.22
20664.5
16061.2
12642.4
9796.07
6315.79
729.424
520.527
1652.35
1247.68
996.628
658.452
2208.85
1749.15
1688.09
1224.65
3086.21
2486.82
19673.9
18505.2
13086.8
12106.7
8369.25
8070.53
7023.06
6112.08
4543.83
3662.43
18623.7
16471.4
14191.6
12011.1
10887.5
9233.01
8237.53
7042.2
5525.7
5155.29
14726.7
11452.7
14920
11304.2
18015.7
14577.6
18108
14550.4
12272.9
9509.6
11836.4
9442.27
14989.9
11202.9
14915.4
11202.1
18109.4
14924.2
17965.9
14911.7
12539
9418.99
12523.3
9544.14
9470.98
7606.82
6476.3
6404.75
9080.01
7372.58
6180.02
6026.96
9892.78
7784.61
6648.37
6768.25
10117.7
7784.01
6899.48
6862.93
1334.45
1145.49
933.822
5668.05
2989.09
2411
1308.45
1258.9
1099.82
6229.75
3575.03
2986.42
1834.08
1998.58
2010.64
7021.29
4541.78
3975.61
16658.7
14847.9
13673.9
11034.4
10169
9672.25
7794.73
7312.82
7107.38
6429.67
5937.41
5645.71
8149.41
5684.01
5029.2
14353.9
12518.1
11361.4
10305.2
9037.28
8342.63
8253.79
7221.94
6677.82
7617.87
6428.78
5776.91
10020.3
6443.81
5633.01
4884.97
2920.57
1853.34
1263.66
5469.91
3158.56
1950.49
1298.43
4913.98
2922.55
1859.08
1271.28
5587.11
3225.33
1997.92
1325.66
4913.54
2903.08
1885.81
1290.02
5705.77
3271.5
2067.3
1360.7
6127.2
3452.83
2082.42
1370.7
6295.44
3576.69
2129.68
1404.23
5227.72
3088.75
1972.01
1320.3
4371.3
2754.09
1828.22
1261.98
4624.66
2817.71
1857.08
1252.73
4052.93
2606.77
1760.89
1219.43
5632.54
3292.75
2046.94
1360.64
4563
2861.14
1869.41
1293.44
5857.39
3430.43
2103.59
1397.95
4648.51
2937.55
1907.97
1320.42
3744.46
2531.47
1705.37
1204.59
2562.86
2076.22
1526.05
1131.72
3762.71
2525.26
1707.13
1204.37
2669.73
2106.05
1536.57
1138.39
3862.51
2533.38
1729.19
1220.25
2981.59
2198.35
1574.1
1165.15
3842.68
2489.2
1712.81
1249.07
3256.09
2267.18
1626.74
1171.34
3629.75
2435.04
1685.44
1202.63
1443.35
1716.12
1239.79
377.78
273.32
1521.82
1130.16
385.928
1652.18
1786.5
1269.41
397.761
513.946
1598.57
1155.04
394.275
2051.43
1912.66
1310.64
397.109
933.573
1730.21
1190
398.955
2552.97
2066.99
1379.5
430.508
1402.65
1880.89
1243.24
416.359
2910.69
2213.94
1466.03
495.829
1584.63
2002.9
1293.72
431.855
3131.39
2383.75
1503.35
476.806
1439.41
2150.29
1389.76
459.83
3043.95
2309.31
1476.37
475.934
1373.68
2082.8
1340.83
443.492
3171.16
2435.51
1516.52
448.001
1421.44
2205.8
1418.63
462.518
3236.18
2486.83
1551.67
455.887
1518.43
2260.3
1453.23
472.759
943.42
630.78
386.902
205.875
64.2283
935.67
629.845
387.282
206.192
64.3313
955.774
636.79
389.531
206.986
64.5366
952.798
637.506
390.753
207.694
64.7517
981.542
645.22
392.894
208.377
64.921
975.289
646.347
394.757
209.438
65.2425
987.059
656.067
399.931
211.832
65.9298
1009.46
669.602
407.101
215.176
66.8951
1007.03
655.191
397.634
210.488
65.5196
1070.76
666.834
400.802
211.579
65.8035
1011.7
652.514
395.385
209.339
65.1814
1069.17
662.541
398.313
210.409
65.4654
1015.31
663.674
402.246
212.638
66.139
1090.45
675.036
404.968
213.506
66.3584
1039.23
676.873
408.981
215.748
67.0344
1115.75
686.821
410.781
216.178
67.1281
966.424
633.696
386.82
205.616
64.1369
1011.47
637.147
386.88
205.468
64.0822
978.311
638.479
388.807
206.437
64.3627
1021.18
640.809
388.414
206.103
64.2568
1003.02
646.452
391.905
207.711
64.7136
1042.58
647.486
391.122
207.233
64.569
1040.62
655.331
394.998
208.948
65.0526
1068.11
654.615
394.16
208.529
64.9301
1075.54
659.868
396.722
209.667
65.2513
12066.5
18747.9
12506
18918.3
13109.2
19070.2
13387.4
19010
12578.9
17949.5
11302.9
12796.8
11432.5
13632.7
11303.7
12577.6
11476
12684.8
10790.4
1855.77
398.765
89.9777
16.0119
12032.1
3436.98
838.491
191.293
34.023
10813.9
1828.64
390.495
87.8405
15.5962
12033
3399.04
826.906
187.885
33.1473
10757.9
1797.38
381.196
85.4816
15.1571
11943.6
3344.99
810.59
183.706
32.3858
10468.9
1714.16
360.874
80.8295
14.3359
11609.3
3226.94
780.253
176.743
31.1519
9734.46
1554.22
326.916
73.5411
13.085
10811.3
3013.86
731.898
166.425
29.398
8379.13
1391.91
302.753
69.3367
12.449
8587.71
2520.24
629.732
145.866
26.0544
8799.66
1438.35
309.075
70.3004
12.5744
9259.78
2711.71
671.087
154.077
27.3555
8196.54
1374.54
300.329
68.955
12.3953
8327.97
2427.53
607.08
141.108
25.2856
8136
1358.6
296.548
68.1091
12.2333
8297.65
2399.91
598.46
139.418
24.945
35380.9
50693.1
49419.9
34228.2
19878.1
20974.1
29362.9
30807.9
23186.6
26124.4
37105.9
50973.8
47028.7
62628.5
30594.8
35020.5
23881.4
25610.3
12914.7
14198.6
4765.98
3035.83
591.065
418.699
475.289
404.36
524.955
4490.73
4247.09
2484.33
3405.67
3141.07
1295.55
1879.56
1627.82
1023.55
1196.74
947.851
4094.47
2029.87
1157.53
1010.24
1366.23
1162.03
865.785
789.286
704.786
604.066
885.994
789.658
4369.38
2517
2923.7
1741.22
1368.45
2045.16
878.349
635.17
982.501
9460.06
9104.72
8838.29
9420.65
14674.7
6560.06
7191.99
7503.84
8070.01
9129.87
1536.45
2153.99
2596.95
2883.74
3027.66
1100
1566.3
1912.75
2140.12
2252.96
1247.53
1773.01
2159.65
2410.07
2532.81
1064.4
1519.7
1859.4
2082.11
2192.07
1372.69
1940.21
2353.05
2619.68
2751.05
9226.55
9112.3
8585.62
8667.62
12914
8712.05
8452.71
7821.84
7668.41
8514.74
5582.04
6358.08
6584.58
6786.98
7165.51
7178.9
7239.33
6765.14
6482.47
6509.43
6623.38
6753.03
6313.38
5961.67
5851.22
3172.64
4072.68
4562
4832.65
4977.89
4377.58
5230.33
5554.52
5713.23
5844.72
3849.44
4692.61
5033.26
5163.45
5223.27
2569.82
3417.02
3929.6
4220.72
4360.54
2948.57
3813.82
4285.46
4529.49
4641.91
2397.5
3220.61
3730.58
4020.02
4154.31
8572.01
8745.28
8477.51
8782.04
13229.4
4717.03
5655.57
6102.6
6461.19
6890.76
2879.48
3783.2
4322.81
4646.37
4824.83
2543.68
3403.71
3951.34
4292.77
4478.38
3337.43
4284.48
4834.1
5194.9
5445.29
2896.13
3824.33
4407.33
4789.12
5019.32
2206
3006.49
3548.79
3901.06
4090.8
2026.4
2788.15
3307.94
3636.37
3802.92
1822.31
2530.43
3017.55
3317.45
3461.28
1572.22
2205.79
2655.9
2940.55
3079.03
2255.24
3061.02
3583.74
3898.07
4052.8
2026.25
2784.34
3296.46
3614.48
3772.78
8885.56
8818.64
8614.13
9126.69
14049.4
5616.32
6428.98
6858.35
7390.76
8197.64
6634.87
7459.47
7659.31
8143.6
9608.73
4148.95
5172.24
5771.22
6250.22
6681.21
3358.11
4346.42
4952.5
5377.21
5672.63
4759.3
5734.64
6236.86
6672.66
7185.99
2237.29
3045.82
3588.38
3935.86
4120.44
1647.67
2301.41
2763.25
3057.27
3202.79
2481.02
3335.4
3890.24
4243.14
4436.45
19842.9
13239.5
20390.3
14642.7
26243.4
38003.6
27523.6
37896.5
20887
21957.3
17993.9
21314.4
23465.9
22126.8
30253.9
24501.1
15477.6
14736.7
7582.51
6579.74
16815.8
15604.3
8681.2
7179.9
20884.3
22474.4
21235
19230.8
21853.4
14367.9
11811.2
13607.4
19230.2
19167.7
40305.6
42040.5
27849.5
29277.6
17407.9
14194.5
18825.4
12891.9
9165.68
8820.13
15765.8
17625.9
6574.9
7239.2
17258.6
19932.6
8162.56
9096.11
16310
23173.2
9441.33
14753
3268.55
8117.35
2406.75
5566.32
19279.3
21929.5
19235
22341.7
20695.4
20879.1
21928.4
21454.9
17823.2
22506.4
20265.6
22201.8
18911.7
22491.5
18999.1
22651.8
22789.9
21689.7
23158.4
21824.3
15748.1
22614
14900.3
22719.2
20296.3
24399.9
24570.9
34841.1
22186.9
29094.1
24727.1
38468.1
18685.8
20804.8
24426.3
33145.4
18103.8
18952.2
24551.3
32688.2
21683.7
23368.7
27557.5
41205.4
21693.3
22110.1
29429.6
41646.4
21187.8
20732.5
31540
41094.6
19460.9
19971.5
21247.6
23133.6
35705.8
19122.7
18170.9
22594.1
21012.8
41037.3
19952.2
21194.6
21472.3
23904.3
44104.9
12406
11202.7
11875.9
15684.8
13602.7
12309
12278.2
16063
15021.5
12837.9
12798.1
16332.6
18346.9
17329
17517.4
16760.4
20768.4
19074
17409.9
15475.8
13355.9
16971.4
19448.9
18901.7
20992.2
20841.5
20563.4
19125.7
19059.2
16796
13105
16329.1
22936.4
25670.8
23785.1
27337.8
21299.9
22020.8
21937.7
23344
22413.6
22583.4
21917.3
21554.4
24033.1
28006.4
24216.4
28336.1
21840.8
24213.3
22003.7
24513.5
22662.8
22776.7
22805.6
22954.7
19485.4
18349
12790.7
14198.9
19491.1
17922.9
12814.8
14375.9
19702.7
18317.1
12972.7
14204.9
19788.8
18178.6
13334.9
14199.6
10152.6
10321.3
4457.51
4070.1
11326.2
10913.8
4990.64
4745.31
11002
10196.9
5654.08
5419.98
16750.5
16001.3
16701.5
16574.4
17023.9
16278.3
13080.7
11514.7
6704.96
5444.38
18786.6
17722.9
20569.4
19451.9
16718.5
15204.6
12269.5
10307.5
6132.75
4476.57
22903.6
21557.2
28512.4
24606.6
25860.2
22800.1
35956.2
26739.4
20786.9
16889.2
22867.2
17875.5
20627
17180.1
22964.6
18139.5
21427.7
18739.9
19230
17661.4
21466.2
23042.1
27629.7
29116.4
30672.4
32638
22690.2
24543.7
20367.4
20578.8
24363.1
26143
13604.9
9976.88
14146.8
10232
13899.9
9901.98
14371.5
10102.9
13805.3
9765.2
14346.8
10329.6
14447.3
10671.7
15115.3
10582.1
17575.5
16846.3
19627.5
17423.6
20410.2
19393.4
22539.4
20219.6
19086.4
14701.1
17928.7
14417.6
21214.4
17775.4
22222.3
17881.6
24274.4
20680.4
24980.4
20825.2
19933
14917.7
20580.3
14973.4
13152.9
9408.34
11940.8
8039.02
12450.7
9072.04
11792.5
7934.13
13662.7
9741.82
12047.1
8090.64
13926.6
9986.8
11997.3
8042.17
12916
12778.1
9326
8567.18
13047.9
12899.7
9188.54
8499.99
12985.8
12414.1
8972.45
8418.19
15311.4
18342
15917.1
11720.3
8696.38
16940.5
15620.2
17162.3
11642.5
8381.58
18723.6
16285.3
14201.5
11782.2
7829.38
12878.4
13351.1
8342.95
8678.02
12801.3
13080.4
8289.12
8589.54
12015.1
11980.2
7989.94
7902.34
16564.9
15371.2
14681.9
13749.4
14919.7
14844.5
11467.6
11707.7
7795.21
7450.26
16778.2
15018.3
14776.1
13048.1
13009.9
11924.7
10872.3
10352.3
7244.74
7301.26
14510.9
11898
14647.2
11432.3
16823.1
13904.6
17414.1
14176.9
12411
10005.4
12435.4
10647.6
14811
11241.5
14858.7
11209.2
17763.1
14733.3
17862.9
14856.1
12541.3
9614.61
12511.4
9590.11
9903.82
8293.83
6919.23
7046.86
10125.1
8872.86
7079.34
7351.76
10053.5
8072.27
6848.6
7095.6
10160.6
7863.96
6964.75
6962.59
15159.3
14983.7
19443.7
16592.8
14687.7
14572.4
18678.1
15884.2
12993.2
13307.5
17192.9
14766.7
14567.2
13838.7
12993.9
12549.4
14551.8
14637.1
12840
12549
15781
13431.6
13624
12688.6
11933
11481.8
11670.8
11686.5
11948.2
11463.5
15207.7
12155.9
6195.2
3750.72
2315.22
1531.52
6413.67
3859.89
2371.47
1548.32
6101.09
3692.68
2281.45
1514.73
6369.52
3829.13
2362.3
1543.69
5930.9
3580.4
2259.87
1505.96
6310.97
3756.67
2373.29
1546.81
6471.14
3755.04
2283.74
1497.48
6408.81
3681.21
2197.8
1448.16
5749.34
3475.62
2222.31
1480.63
4733.61
3035.08
2009.98
1383.31
5469.74
3375.43
2188.82
1453.42
4655.16
3041.09
2008.3
1369.01
5913.69
3521.67
2202.2
1462.37
4756.05
3019.37
1981.49
1373.92
5943.59
3506.6
2156.49
1433.24
4708.96
2988.95
1945.92
1347.95
5751.06
3548.92
2223.98
1495.28
5047.54
3256.69
2101.61
1444.19
5625.06
3488.34
2194.49
1475.78
4962.96
3222.11
2083.06
1436.34
5451.47
3391.03
2169.16
1467.18
4904.07
3177.2
2064.04
1432.2
5067.33
3210.04
2092.32
1466.57
4756.48
3101.78
2046.15
1391.9
4535.43
3027.44
1996.52
1374.77
4058.79
2962.62
1782.57
510.559
2581.23
2778.54
1686.93
540.123
4082.47
2960.54
1786.65
528.187
2692.55
2779.27
1685.89
542.569
4130.49
2942.76
1768.25
507.891
2848.49
2766.27
1664.98
531.275
4082.76
2900.65
1779.57
532.661
2841.58
2728.16
1651.78
532.502
3852.41
2818.22
1788.99
592.121
2426.19
2640.39
1625.5
529.992
3422.2
2637.31
1686.02
539.918
1627.91
2422.96
1562.02
516.471
3575.17
2714.09
1730.65
556.138
1784.71
2516.52
1588.38
520.183
3315.95
2574.38
1625.52
486.565
1499.08
2353.01
1518.18
496.315
3278.36
2530.97
1587.45
468.783
1536.99
2306.09
1485.21
483.774
1115.2
724.478
434.508
227.726
70.5049
1092.73
718.642
432.96
227.251
70.3879
1114.34
722.155
432.878
226.887
70.2541
1091.01
714.945
430.569
226.057
70.0346
1125.83
720.494
430.952
225.839
69.9378
1091.94
710.473
427.671
224.618
69.6104
1066.76
700.459
422.834
222.42
68.9794
1038.69
686.3
415.768
219.193
68.0531
1113.33
713.11
427.05
224.014
69.4089
1170.64
718.287
426.63
223.421
69.2068
1146.83
721.427
429.972
225.184
69.7325
1198.11
724.506
429.149
224.51
69.5145
1085.28
703.293
422.541
222
68.8338
1155.01
709.795
422.568
221.604
68.6884
1063.39
690.566
416.039
219.012
67.9752
1137.87
698.899
416.932
219.016
67.9452
1161.33
733.215
436.381
228.225
70.62
1237.23
741.202
437.707
228.546
70.6917
1163.82
731.881
435.268
227.633
70.4413
1238.16
739.962
436.828
228.09
70.5551
1174.81
730.269
433.479
226.678
70.1545
1242.91
737.573
435.112
227.227
70.2988
1200.76
730.074
431.878
225.767
69.8778
1250
733.74
432.914
226.172
69.9893
1227.89
728.663
430.712
225.178
69.7025
13609.3
18056.6
13652.7
18033.2
13743.6
17964.8
13428.7
17657.6
12434
16669.1
11295.5
12698.1
11423.7
13361.4
11299.4
12540.2
11474.7
12675.6
10686.2
1797.04
382.581
86.0903
15.3126
11506.9
3293.52
802.493
182.936
32.5329
10618.1
1763.68
374.071
84.0187
14.9189
11431.7
3245.86
790.141
179.594
31.7003
10433.7
1724.13
364.616
81.7944
14.5167
11252.5
3181.3
773.479
175.633
31.0028
10066.6
1641.45
345.722
77.5707
13.778
10898.8
3067.06
745.425
169.356
29.9042
9402.85
1499.05
315.544
71.0824
12.6621
10229.8
2882.7
703.184
160.319
28.367
8301.79
1375.86
298.668
68.3299
12.2638
8484.68
2481.54
619.015
143.278
25.5877
8641.21
1407.57
301.915
68.6474
12.281
9020.03
2634.67
651.96
149.773
26.6104
8161.54
1366.91
298.266
68.4214
12.2943
8286.19
2410.55
601.987
139.803
25.0413
8126.06
1356.35
295.921
67.9429
12.2013
8286.4
2395.22
596.991
139.027
24.8702
34969.8
50505
48645.5
32951
25471.4
30706.1
24552.9
30563.7
28880.8
46593.6
30734.8
47796.7
73.9955
85.2512
110.168
151.762
215.284
307.909
83.1011
95.1122
121.564
165.223
230.344
322.558
67.2778
64.0155
78.8717
76.5544
104.698
104.725
148.312
153.393
214.292
226.401
305.449
318.347
439.601
622.525
879.153
1242.02
1674.12
1987.09
448.499
614.387
825.075
1073.49
1318.4
1478.48
197.577
288.601
361.061
411.219
436.817
227.437
331.754
414.459
471.502
500.543
293.476
427.061
532.251
604.37
640.942
403.438
585.119
726.856
823.267
871.918
570.62
823.748
1018.76
1150.09
1215.99
812.571
1165.14
1432.09
1609.7
1698.36
221.754
323.591
404.424
460.237
488.674
253.544
369.364
460.863
523.783
555.755
323.483
469.917
584.696
663.101
702.777
438.581
634.645
786.718
889.723
941.594
609.419
877.311
1082.32
1219.81
1288.72
849.516
1214.49
1489.03
1671.15
1762.11
179.722
262.714
328.918
374.832
398.295
171.046
250.123
313.27
357.106
379.521
210.524
307.335
384.265
437.431
464.534
204.383
298.473
373.314
425.079
451.483
279.075
406.495
507.091
576.206
611.3
279.201
406.803
507.622
576.932
612.137
394.559
572.897
712.43
807.545
855.593
408.126
592.699
737.151
835.621
885.355
568.515
821.849
1017.63
1149.72
1216.03
600.66
868.308
1075.04
1214.38
1284.25
807.206
1159.78
1427.79
1606.31
1695.32
841.592
1209.69
1489.46
1675.52
1768.06
1152.22
1635.32
1992.26
2226.6
2343.52
1614.39
2256.13
2714.77
3013.18
3164.6
2241.94
3060.43
3619.66
3986.3
4184.29
3084.78
4064.22
4695.75
5132.68
5410.24
4015.51
5055.25
5686.36
6182.13
6590.45
4662.04
5701.59
6309.43
6843.45
7359.84
1173.76
1662.28
2021.75
2257.68
2375.72
1593.96
2228.95
2683.58
2979.84
3130.08
2115.6
2909.65
3459.79
3819.09
4008.11
2712
3654.48
4284.25
4703.63
4940.77
3278.81
4326.41
5004.03
5472.42
5764.29
3641.11
4743.06
5443.49
5943.14
6275.73
75.069
88.6439
116.396
161.72
230.258
329.479
84.2674
98.7621
128.14
175.426
244.985
342.253
68.318
65.0679
82.1939
79.9526
110.935
111.239
158.616
164.509
230.319
243.848
330.053
346.54
468.293
655.957
912.345
1266.88
1686.58
1990.35
472.942
641.637
851.587
1094.82
1331.5
1482.77
200.47
292.89
366.507
417.498
443.533
236.58
345.316
431.699
491.395
521.831
310.284
452.045
564.081
641.162
680.351
430.371
625.296
778.221
882.808
935.792
611.257
884.7
1097.11
1241.3
1314.07
871.41
1254.1
1547.34
1744.68
1843.99
224.899
328.261
410.366
467.099
496.02
263.392
384.003
479.512
545.338
578.842
341.256
496.395
618.506
702.253
744.755
466.217
675.969
839.677
951.23
1007.65
649.213
937.139
1159.4
1309.71
1385.49
903.314
1296
1594.82
1795.25
1896.13
182.521
266.857
334.172
380.883
404.762
173.877
254.31
318.576
363.214
386.048
219.47
320.588
401.09
456.823
485.272
213.531
312.017
390.496
444.875
472.646
295.894
431.464
538.86
612.891
650.57
296.764
432.868
540.774
615.202
653.097
422.407
614.394
765.427
868.925
921.408
438.174
637.488
794.367
901.901
956.433
612.003
887.061
1101.44
1247.27
1320.91
648.07
939.57
1166.84
1321.41
1399.44
874.299
1261.17
1559.06
1759.98
1861.06
918.507
1326.02
1640.23
1852.15
1958.67
1231.17
1756.26
2150.86
2414.09
2546.85
1707.81
2402.41
2910.33
3247.75
3421.06
2337.53
3216.02
3834.29
4249.72
4476.19
3161.38
4198.34
4890.23
5380.14
5690.98
4059.75
5141.55
5818.5
6357.09
6795.41
4675.64
5730.69
6355.68
6906.36
7435.17
1241.03
1765.35
2156.95
2417.58
2549.18
1669.83
2347.14
2840.96
3168.1
3335.62
2190.79
3029.73
3623.05
4017.46
4226.67
2774.26
3757.48
4428.09
4881.96
5139.69
3318.58
4394.89
5102.26
5596.63
5904.78
3654.56
4766.88
5478.23
5987.63
6326.52
4750.6
3034.01
633.867
452.712
529.028
444.552
574.155
4274.57
4020.3
2499.23
3199.68
1390.48
1944.21
1120.44
1271.15
1030.14
3993.65
2071.23
1244.48
1084.89
1435.3
1220.82
911.376
851.025
791.564
676.636
973.313
863.535
4325.47
2519.51
2904.1
1764.96
1411.27
2075.05
934.296
693.704
1047.41
9455.98
9143.25
8914.45
9544.93
14899.8
6568.61
7225.92
7565.53
8161.69
9249.56
1656.08
2341.3
2847.23
3183.68
3355.34
1193.53
1709.4
2100.15
2361.39
2492.73
1395.17
1998.69
2455.06
2758.91
2910.89
1174.58
1687.54
2078.36
2339.93
2471.04
1509.09
2151.4
2632.48
2952.05
3112.58
9194.48
9807.47
9921.4
10582
15764.2
8839.73
9629.38
9920.77
10530.3
11956.1
5822.52
7068.98
7799.63
8436.15
9098.78
7471.16
8666.68
9110.41
9616.38
10121.3
3496.65
4687.47
5479.91
6003.52
6295.73
4715.35
6023.15
6826.37
7388.25
7756.7
2872.87
3952.74
4702.55
5189.18
5441.14
3234.5
4402.54
5194.6
5706.2
5974.5
2658.73
3690.75
4418.09
4888.5
5126.96
8547.02
9114.94
9261.73
9949.22
15072
4920.97
6134.03
6884.67
7513.57
8126.61
3154.1
4274.2
5037.71
5548.42
5836.21
2768.97
3789.69
4500.67
4977.94
5242.79
3567.42
4715.6
5479.2
6023.98
6387.71
3077.64
4143.14
4869.28
5373.15
5676.85
2338.48
3224.5
3851.71
4274.3
4505.05
2203.9
3076.41
3704.11
4120.07
4336.4
2067.31
2919.04
3542
3950.1
4154.75
1773.9
2519.08
3071.64
3436.3
3619.17
2513.72
3494.36
4191.04
4647.27
4882.78
2239.52
3132.09
3775.25
4199.17
4417.45
8879.9
8949.11
8867.78
9527.33
14763.3
5653.92
6536.63
7043.68
7655.46
8530.55
6688.28
7717.61
8144.21
8854.42
10552
4239.11
5357.57
6062.96
6641.29
7141.55
3496.96
4601.89
5333.62
5869.37
6235.08
4903.94
6075.24
6801
7443.18
8102.85
2400.48
3315.46
3963.82
4398.56
4633.69
1812.45
2561.83
3113.62
3478.83
3664.1
2674.61
3663.23
4354
4820.12
5079.65
6741.22
6441.59
5900.92
5072.56
3805
1518.67
20070.8
20381
22853.5
23672.8
19489.3
20520.9
21707.1
20860
16668.7
21284.4
17284.8
21784.4
19792.1
17770.9
28326.2
19168.5
19324.8
21429.3
21979
18295.3
19316.7
20626.2
20024.1
16534.2
25710.2
17050.8
25410.5
19940.1
21795.9
30372
18100.4
18117.6
19575.5
19852.3
17330.4
18804.2
19143.8
19089.4
18878.5
22477.7
19638.3
22393.9
21592.7
24009.4
27069.4
17042.1
17081
17794.2
17894.4
16655.6
18370.8
17549.7
17795.4
17468.5
19403.5
18189.9
18804.4
19467.5
21235
23010.3
15962.9
16038.1
16514.8
16522.4
16134.1
17985.1
16426.8
16860.5
16337.9
15705.6
17081.4
14966.8
17622.6
17459.8
18613.1
15441
15565.4
15637.7
15608.3
15575.2
17051.4
15680.2
16029.3
15429.2
13252.3
15950.6
12889.7
16176.9
14999.5
16576.7
22259.6
21309.9
23599.7
24905.3
20402.4
20241.1
21821.2
20677.8
19346.6
14102.9
19249.2
14158.7
17016.7
15321.2
18318.1
20813.2
20119.3
21623.8
22493
19539
19561
20423.3
19460.8
17666.6
13421.2
17605.2
13504.5
15341.1
13590.1
16660.4
18856.3
18434
19200.8
19639.3
18075.2
18108.9
18575.5
17966.2
16419.5
12827.1
16164.9
12573.1
14394.5
12155.8
15959.9
16860
16607.8
17194.3
17407.1
16354.1
16320.4
16944
16447.6
14988.7
12696
14841.9
12414.8
13365
11862.7
15658.3
15653.4
15478.2
15962.5
16077.8
15118.5
15083.3
15870.1
15527.5
14317.2
13202.7
14213.9
13057.4
13055.9
12037.5
15667.9
14779
14621
15191.2
15271.7
14350.2
14523.9
15083.8
14907.7
13929.3
13507.9
13890.4
13439.3
12883.7
12318.8
15988.6
12294.6
6979.25
20164.1
13284.3
22087.6
16365.6
34478.5
43007
45442.3
55865.4
29495.4
25666.7
18691.3
14901.8
9130.57
6084.48
20715.9
20935
17956.2
20960.5
27983.1
24688.8
32560.2
26054.6
8559.68
6083.69
4772.9
3576.89
10344.1
8402.86
6355.12
5204.09
19355.4
19867
19551.1
16131.4
14937.9
11912.1
11907.1
13597.8
19150.3
19140.3
40579.2
42048.1
28455.6
29423.3
16612.6
14013.1
17884.6
12709
8321.7
8608.48
6875.27
10133.6
3578.76
4461.51
9563.45
13695.5
5756.3
6866.01
10463.3
18412.5
7313.75
12295.5
2764.56
7260.79
2303.18
5397.5
18324.3
22745.3
19154.3
22798.3
22311.9
22438.1
22967.6
22304
16470.3
22459.1
16712.1
22083
18979.3
22730.6
19037.8
22729.5
23306.2
22113.6
23306.8
21954.2
15294.4
22609
14810.9
22725.6
19145.2
22954.4
24167.3
34419.4
20307.4
26773.7
23979.1
37719.7
18141.2
20085.8
24241.4
32932.6
17958.9
18749.4
24505
32627
6111.48
8179.91
15757.6
28265.6
7589.12
8753.47
20311.2
31986.6
9265.37
9402.18
25376.1
35002.6
25413
26655.8
22090.8
21907.6
33049.6
26664.4
25656.4
22448.1
19878.5
38201.4
24382.8
24493.6
22326.7
22974.7
43028.5
2280.6
2782.27
4989.29
12027.5
3269.28
3768.75
6889.92
13319.3
4769.03
4059.53
9173.22
14864.6
26008.7
25022.8
23834.2
22778.9
21073
18657.8
16232.7
14061
11869
17054.1
23874.4
22511.5
24491.2
23581.2
21763.9
19999.5
18494.3
16370.8
12554.4
16961.8
24528.2
27454
24543.7
28264.2
23337.8
23921.1
22882.4
24259.1
22746.6
23064.3
22534.5
22339.6
24390.9
28437.1
24323.1
28461.2
22271
24645.5
22129.5
24637.6
22837.7
23012.6
22861.2
23023.6
19470.2
18481
12663.8
14229.6
19370.5
18042.1
12505.2
14428.3
19714.9
18395.2
12924.2
14221.8
19797.3
18204.4
13323.1
14206.7
1791.99
1136.27
749.626
1005.34
634.191
580.903
2562.12
1401.08
1006.9
1956.63
1493.36
1228.4
2843.47
2154.93
2073.16
3387.29
2627.22
2287.08
22970
19769.1
17675.3
21465.7
19028.8
17268.1
15606.1
13832.1
12841.6
10937.7
8939.36
8062.38
5201.7
3579.54
2918.7
20993.2
18473.2
16568.4
21981.7
19018.6
16913.4
16615.7
13454.9
11710.4
11056.7
8271.53
7119.45
5503.12
3536.25
2721.02
28039.2
27185.8
30757.7
27352.8
31723.9
27372.9
38605.4
29047.4
21283.2
21442.6
21058.1
19468.5
24090.2
22402.9
23774.2
20104.3
23565.2
23213.3
21660.8
22967.5
28404.8
25746.8
28971.1
29515.2
31729.5
32932.4
23986
24984.7
21469.3
20890.3
25905.4
26657.8
16495.4
8924.67
15510.6
9873.12
16750.1
8995.56
15492.2
9805.23
16552.6
9034.56
15491.5
10218.4
15127.3
10691.9
15342.9
10596.5
21486.5
18119.8
21547.4
18208.6
23910.5
21395.2
24359.2
21315.6
20949.1
15022.9
21668.1
14731.8
22155
18190.7
22498.9
18006.8
25135
21224.4
25225.2
20987.7
20861.5
15119.3
20853.6
15035.9
13599.4
9064.26
11791.6
7701.08
12572.6
8110.47
11269.5
7196.78
13995.6
9631.89
12015.6
7938.03
14040.1
9963.55
11990.9
7993.24
2577.67
1342.1
4791.71
2688.77
2752.69
1643.57
5108.23
3189.07
3361.81
2444.24
5632.67
4087.84
12887.9
20234.7
9263.97
8883.22
6464.79
19652.3
13479.5
7820
7871.82
5335.15
20665.3
16061.1
12641.2
9794.38
6314.48
714.418
503.799
1634.08
1236.04
997.781
658.265
2209.12
1748.69
1688.27
1225.11
3086.04
2487.06
19674.1
18505.1
13086.5
12106.3
8368.81
8069.95
7022.28
6111.68
4543.22
3662.23
18624
16471.4
14191.4
12010.8
10886.8
9232.46
8236.54
7041.64
5524.83
5154.71
14726.4
11452.4
14919.6
11303.8
18016
14577.6
18108.2
14550.3
12272.1
9508.97
11835.5
9441.61
14989.6
11202.6
14915
11201.7
18109.5
14924.1
17965.8
14911.5
12538.3
9418.43
12522.6
9543.59
9469.99
7606.14
6475.44
6404.01
9078.91
7371.89
6179.08
6026.22
9891.92
7783.98
6647.62
6767.54
10116.9
7783.43
6898.8
6862.29
1310.4
1125.92
918.344
5633.58
2960.04
2383.72
1306.46
1258.02
1099.83
6227.21
3574.92
2986.58
1834.51
1998.89
2010.87
7021.15
4542.06
3975.96
16658.5
14847.9
13673.9
11034
10168.6
9671.99
7794.12
7312.33
7107
6429.35
5937.14
5645.47
8148.87
5683.92
5029.23
14353.7
12518
11361.4
10304.8
9037.02
8342.44
8253.36
7221.63
6677.6
7617.38
6428.49
5776.71
10019.3
6443.48
5632.86
4884.62
2919.99
1852.78
1263.04
5468.13
3156.59
1949.37
1297.57
4912.73
2922.05
1858.81
1271.16
5586.29
3225
1997.73
1325.55
4912.17
2902.57
1885.54
1289.88
5704.36
3271
2067.05
1360.56
6125.79
3452.31
2082.17
1370.56
6294.34
3576.23
2129.45
1404.1
5226.59
3088.23
1971.74
1320.15
4370.54
2753.66
1827.97
1261.82
4623.58
2817.21
1856.81
1252.59
4052.14
2606.33
1760.63
1219.27
5631.47
3292.25
2046.68
1360.49
4562.31
2860.74
1869.17
1293.28
5856.49
3429.99
2103.36
1397.81
4647.9
2937.18
1907.75
1320.27
3742.74
2531.25
1705.28
1204.15
2559.74
2075.35
1526
1131.24
3761.89
2524.83
1706.87
1204.25
2669.15
2105.75
1536.38
1138.31
3861.61
2532.94
1728.93
1220.11
2980.96
2197.99
1573.88
1165.03
3841.84
2488.77
1712.56
1248.91
3255.42
2266.8
1626.51
1171.2
3629.02
2434.63
1685.19
1202.46
1441.61
1715.34
1239.98
377.867
272.627
1520.33
1129.68
385.753
1651.72
1786.32
1269.23
397.7
513.45
1598.52
1154.98
394.258
2051.02
1912.39
1310.46
397.045
933.325
1729.99
1189.86
398.91
2552.49
2066.66
1379.3
430.444
1402.4
1880.6
1243.07
416.302
2910.16
2213.57
1465.81
495.758
1584.37
2002.57
1293.52
431.793
3130.91
2383.39
1503.14
476.745
1439.21
2149.97
1389.56
459.766
3043.43
2308.93
1476.15
475.872
1373.46
2082.47
1340.63
443.429
3170.74
2435.18
1516.32
447.948
1421.27
2205.5
1418.44
462.459
3235.81
2486.53
1551.49
455.838
1518.29
2260.03
1453.06
472.705
942.638
630.428
386.761
205.818
64.213
934.791
629.409
387.096
206.116
64.3103
955.745
636.75
389.507
206.975
64.5334
952.748
637.464
390.729
207.683
64.7486
981.477
645.174
392.867
208.364
64.9173
975.216
646.299
394.73
209.425
65.2387
986.975
656.015
399.902
211.817
65.9256
1009.37
669.548
407.071
215.161
66.8906
1006.94
655.139
397.605
210.474
65.5155
1070.64
666.776
400.771
211.564
65.7989
1011.62
652.464
395.357
209.326
65.1774
1069.06
662.485
398.282
210.394
65.4611
1015.21
663.617
402.215
212.623
66.1344
1090.33
674.976
404.936
213.49
66.3537
1039.13
676.817
408.95
215.732
67.0298
1115.63
686.761
410.749
216.162
67.1234
965.64
633.396
386.705
205.571
64.125
1010.75
636.895
386.785
205.43
64.0722
978.298
638.44
388.783
206.426
64.3597
1021.18
640.767
388.39
206.092
64.2539
1002.96
646.407
391.879
207.698
64.71
1042.52
647.442
391.096
207.221
64.5655
1040.53
655.28
394.969
208.934
65.0486
1068.02
654.565
394.132
208.516
64.9262
1075.43
659.814
396.693
209.653
65.2472
12009.4
18683.7
12509
18920.8
13111.1
19071.4
13388.6
19010.8
12579.8
17950.2
11303.6
12797.5
11433.2
13633.4
11304.4
12578.2
11476.6
12685.4
10780.8
1844.01
395.663
89.2555
15.883
12016.6
3430.39
836.502
190.804
33.9321
10810.8
1829.42
390.644
87.8638
15.5991
12031
3398.26
826.624
187.803
33.1312
10757.2
1797.47
381.208
85.4792
15.156
11943.1
3344.73
810.486
183.672
32.3784
10468.9
1714.17
360.872
80.8263
14.3349
11609.4
3226.88
780.219
176.729
31.1485
9734.79
1554.26
326.92
73.5407
13.0847
10811.6
3013.91
731.895
166.421
29.3968
8379.56
1391.98
302.766
69.3393
12.4494
8588.14
2520.36
629.757
145.871
26.0551
8800.07
1438.4
309.085
70.302
12.5746
9260.18
2711.8
671.103
154.079
27.3555
8196.98
1374.61
300.344
68.9581