/*--------------------------------*- C++ -*----------------------------------*\
  =========                 |
  \\      /  F ield         | OpenFOAM: The Open Source CFD Toolbox
   \\    /   O peration     | Website:  https://openfoam.org
    \\  /    A nd           | Version:  11
     \\/     M anipulation  |
\*---------------------------------------------------------------------------*/
FoamFile
{
    format      ascii;
    class       volScalarField;
    location    "1.3";
    object      gradTx;
}
// * * * * * * * * * * * * * * * * * * * * * * * * * * * * * * * * * * * * * //

dimensions      [0 -1 0 1 0 0 0];

internalField   nonuniform List<scalar> 
5712
(
-7208.42
-9214.88
-17021.8
-24936.8
-25481.3
-43920.3
-19491.8
-49566.2
-15818
-34741.8
-23658.9
-36030.7
-21168.8
-27860.6
-9329.97
-10695.5
-16282
-18689.2
-20883.4
-20722
-16360.6
-20143
-24034.8
-21525.8
-5927.42
-4523.62
-7358.23
-5008.7
-13783.9
-11159.5
-23418.4
-17112.9
-18098.4
-18883.6
-20264.8
-19602.3
-7327.47
-5623.44
-42550.4
-56963.1
-27556.6
-33808.4
-56868.8
-73861.9
-29447
-33725.6
-31723.6
-44796.1
-27782.5
-36757.1
-16371.4
-26267.5
-3213.9
-1090.36
-3369.47
-1221.24
-9681.91
-3931.86
-13182.7
-4882.55
-9518.86
-3630.21
-9934.52
-3200.39
-16833.8
-5378.84
-21694.8
-7350.77
-25938
-13014.1
-23753.4
-14069.2
-24082.2
-15601.3
-21203.5
-15811.9
-18901
-11268.8
-18969
-9794.64
-24529.3
-15565.4
-24599.4
-15678.5
-22419
-16665.4
-22693.3
-16700
-20390.1
-12915.3
-21114.5
-13208.6
-19421.6
-8521.48
-9093.44
-11222.3
-19489.4
-9356.48
-8027.14
-11505.1
-20547.8
-8443.07
-10235.6
-11227.4
-21567.6
-8632.59
-11096.6
-11686.5
-4157.54
-4559.78
-1414.78
-2858.52
-12077
-12798.2
-4765.01
-8691.76
-15478
-17075.9
-7739.3
-13278.2
-12278.2
-574.601
-14243.1
-18088.4
-10112
-213.318
-7101.3
-13061.3
-21322.5
-15683.1
-10711.4
-13223.9
-11866.5
-10507.3
-16614.4
-3907.35
-3153.48
-2260.08
-2225.79
-10917.7
-8979.11
-6772.35
-6396.51
-13508
-11039.1
-8836.99
-7851.68
-5640.07
-7324.09
-11877.5
-12458.2
-14771.4
-13378
-16727.1
-14333.8
-11912.3
-10042.1
-9337.73
-9470.2
-12428
-9268.06
-11514.5
-7874.75
-10155.3
-6582.14
-12242.6
-7840.46
-10520.8
-4261.61
-9180.66
-9586.48
-12875.2
-16371.4
-14223
-20406.1
-7411.93
-7884.23
-9399.56
-2255.02
-8237.69
-15537.3
-7840.78
-16769.1
-14111.2
-25272
-14363.5
-26945.3
-6364.4
-13556.6
-5835.61
-14557.4
-8879.78
-6381.04
-12562.3
-4715.29
-8908.57
-1000.74
-10828.6
-91.9111
-8613.71
-9853.45
-13198.2
-5970.96
-7192.11
-11715.2
-11747.2
-7903.12
-2419.12
-2075.52
-1764.42
-1754.18
-1568.43
-1349.83
-7066.43
-5503.34
-4551.02
-4671.54
-3544.88
-2935.5
-8367.2
-6878.29
-6200.94
-5572.67
-4269.81
-3912.81
-6190.1
-5154.24
-4910.92
-10641.1
-7538.88
-6111.42
-10393.4
-7152.88
-5522.3
-10829.2
-8046.9
-6765.56
-7251.24
-4467.98
-3322.27
-15275.5
-12491.6
-10330.7
-10148.6
-7961.32
-6213.48
-9388.05
-6821.74
-5056.23
-8190.34
-5523.53
-3905.58
-8927.69
-4730.74
-2442.28
-10858.6
-14594
-8685.28
-11099.8
-11962.5
-17419.9
-10771.2
-15486.7
-12.9082
-704.443
520.105
-119.414
-3003.33
-3319.8
-1296.31
-710.005
-790.786
-2479.29
-9655.29
-13961.5
-6671.32
-3819.4
-10407.8
-10336.7
-16287.1
-17948.8
581.953
4286.31
-7823.72
-7340.34
-7407.79
-5695.14
-1019.74
-532.345
-708.517
-313.949
-1975.55
-147.421
291.649
801.552
-9283.33
-2265.71
-6405.47
-1629.36
-9243.47
-2773.52
-11152.6
-3493.09
-9254.64
-12133.9
-8498.8
-11791.8
-15084.9
-15682.5
-14331.2
-14784.5
-5706.34
-9233.5
-6623.59
-9200.26
-8983.31
-11329.8
-9869.9
-11402.9
-14910
-14482
-15584.1
-14500.3
-5736.01
-8905.13
-6206.93
-9025.38
327.982
-1023.91
-6933.05
-3926.65
839.203
-635.139
-6424.56
-3450.9
-118.686
-1289.46
-7065.52
-4286.37
-528.996
-1528.69
-7058.48
-4404.81
696.778
793.12
-141.207
28.1777
2902.98
2888.21
279.456
481.275
692.338
1993.95
-1406.9
-714.467
10158.6
9884.16
5463.15
4239.15
618.683
10752.1
10671
4155.24
6138.19
1029
-10714.1
-8202.74
-6957.3
-6212.37
-3393.35
755.041
654.461
80.9817
17.6249
2408.35
2203.96
266.214
95.6396
2446.17
2754.24
-376.967
-546.594
5068.01
2054.47
7821.63
4593.62
3410
2410.42
3872.09
3170.73
-76.1928
-795.561
-3930.32
-2453.69
-1151.24
839.838
-927.515
693.087
-1355.64
-132.05
-1438.32
-1572.79
-5151.02
-4604.48
-9767.44
-5836.6
-8239.16
-8086
-12463.4
-9975.35
-7364.89
-4211.81
-3619.02
-3492.21
-11516.4
-5038.75
-12645.8
-5641.97
-13895.5
-10190
-14814.5
-10955.7
-8973.85
-3404.84
-10038.1
-3948.89
-5376.79
-4015.76
-3622.3
-5278.36
-3368.15
-3649.19
-3049.17
-4880.77
-6247.36
-3917.86
-4105.93
-6072.06
-7678.85
-4248.08
-5328.76
-6247.5
605.189
605.518
663.457
48.3245
214.48
233.042
2195.34
2199.4
2144.02
236.519
613.947
599.532
2844.97
2972.8
2956.6
-327.705
608.089
786.9
965.736
800.94
500.924
3069.63
3044.08
2770.62
2454.54
2660.89
2564.99
3056.83
3098.75
2943.57
-879.871
279.469
356.33
-3566.57
-2048.36
-1133.93
631.307
1517.77
1978.82
675.593
1743.01
2190.03
335.829
1443.81
1746.69
-1622.5
368.873
594.948
25.9608
26.283
27.4405
39.7292
224.875
112.273
84.2768
71.4609
15.6805
48.5422
113.813
156.973
361.282
199.994
213.773
199.898
-175.652
6.68942
165.794
288.152
122.491
147.574
175.823
180.929
10.1227
82.2724
70.9032
64.2192
-191.938
-21.4003
69.57
110.604
-781.895
-177.52
18.2962
141.075
-1186.24
-285.386
-55.8571
261.562
-524.019
-81.5863
88.617
241.255
-966.043
-216.934
-66.8319
220.791
-839.988
-207.64
46.6768
198.205
-1334.06
-337.848
-61.0343
312.536
-931.469
-261.205
47.6678
245.375
-1435.64
-382.509
-76.7999
325.603
14.0485
15.9858
25.2979
51.82
42.0685
25.2531
12.6389
46.5387
79.9417
57.7888
86.1401
145.176
165.991
86.3317
44.7421
127.713
-305.825
-49.4361
79.8211
240.035
-110.542
19.5158
48.7539
223.07
-23.4392
86.5469
136.95
248.165
27.2455
74.5517
38.2016
224.058
-815.144
-165.651
-36.4295
308.065
77.941
36.2083
20.9198
37.7448
137.024
53.1673
24.6123
18.8958
166.28
86.1285
40.9882
94.073
353.517
141.745
60.2177
47.6837
120.303
95.3848
53.1548
152.601
458.53
199.616
90.0381
74.1309
-27.1817
85.6068
65.2823
212.987
384.972
215.432
104.536
92.1299
-390.126
7.76651
4.40813
192.618
155.836
183.453
88.8033
90.2276
-939.697
-112.814
-20.7259
216.118
-285.202
35.0109
43.4986
75.695
-705.02
-38.513
-9.65328
200.027
-137.634
101.708
68.4352
86.5165
-1147.72
-195.401
-44.5329
234.969
-409.564
-25.3314
22.9876
69.1434
-1297.93
-271.108
-74.2599
229.81
-515.37
-84.1277
-1.94889
58.5568
17.2377
6.7555
2.97168
1.46337
0.906125
22.6025
10.0903
4.75087
2.40907
1.50895
41.1598
15.5782
6.79964
3.34753
2.07433
50.1497
22.2474
10.4888
5.33561
3.3494
54.5399
19.4311
8.35502
4.10165
2.54113
66.3613
29.1419
13.7411
7.00416
4.40283
33.8864
14.6747
6.90336
3.52797
2.22353
24.7421
8.80759
3.75424
1.84824
1.15112
53.0712
19.4643
8.53114
4.23438
2.63689
25.5162
8.10053
3.34691
1.62718
1.00598
56.4821
22.4443
10.2853
5.18918
3.24846
24.3435
8.07826
3.43867
1.68764
1.04634
41.1047
12.8816
5.21892
2.5168
1.55377
24.1722
7.17506
2.89098
1.39835
0.865044
36.8832
8.7579
2.86016
1.23942
0.735258
20.4442
4.21307
1.26505
0.527945
0.309018
14.6138
5.24091
2.23378
1.08561
0.668474
10.777
4.18268
1.85959
0.918012
0.567969
35.9052
13.0122
5.65699
2.78137
1.72201
27.9314
10.9083
4.91867
2.44841
1.5214
50.1433
16.1153
6.73347
3.27048
2.01835
37.7587
14.8756
6.79725
3.40883
2.12677
44.3089
17.4977
8.07335
4.0729
2.54667
25.5983
11.1359
5.26309
2.67208
1.67474
22.5361
9.41168
4.4336
2.24979
1.40933
-217.332
-389.826
-407.018
-926.221
-228.501
-1103.31
466.58
-743.413
1181.89
359.202
-508.334
-1096.31
795.52
690.494
-1120.81
-1890.47
-1531.06
-2236.26
-759.99
-179.414
-40.8842
-9.12896
-2.31749
-213.169
-108.923
-14.9301
-4.13156
-1.89362
-2332.04
-547.477
-125.182
-27.8131
-7.07094
-494.727
-142.222
-35.9495
-7.70376
-2.14771
-3893.05
-915.57
-209.964
-46.8222
-11.8819
-804.667
-246.134
-61.5532
-14.645
-3.76027
-5168.12
-1218.95
-280.818
-62.8504
-15.9784
-935.702
-310.416
-80.0698
-19.2329
-4.91891
-6371.74
-1517.95
-352.328
-79.3063
-20.2617
-1038.53
-379.932
-100.701
-24.4598
-6.32517
-7372.38
-1810.01
-426.335
-96.9079
-24.9117
-1738.1
-545.164
-137.021
-32.0044
-8.16044
-6932.83
-1697.42
-397.968
-90.0347
-23.0541
-1290.58
-452.657
-118.093
-28.2409
-7.22125
-7553.79
-1855.88
-437.96
-99.7374
-25.6909
-2006.85
-604.423
-149.258
-34.3204
-8.72053
-7847.04
-1910.75
-451.468
-102.775
-26.4637
-2098.74
-632.463
-157.373
-33.6396
-9.03106
-566.406
-7498.97
-6847.21
-2432.3
1728.31
2927.33
8126.43
11909.3
1765.5
8708.46
-1958.91
2496.58
2508.52
5117.31
9813.29
13953
14839.2
18681.8
6063.51
7865.28
-20108.2
-14358.8
-4060.87
-2956.76
-2096.87
-2926.25
-2893.19
-12090.9
-10912.7
-9522.41
-9793.62
-7741.35
-5616.58
-7583.28
-4728.6
-4007.61
-4757.27
-3262.69
-19710.9
-9837.54
-3185.2
-5535.37
-7905.57
-5384.13
-5684.76
-4158.05
-2395.54
-3358.66
-3729.08
-4063.97
-19707.5
-12690.6
-11943.5
-8492.3
-8216.03
-8833.82
-3423.28
-4402.72
-5942.74
-13862
-11517.3
-9168.85
-7894.8
-6265.47
-9177.48
-6154.91
-4563.89
-3284.64
-1579.03
-3551.49
-2910.39
-2152.86
-1326.1
-450.334
-2623.15
-2178.01
-1624.51
-1002
-338.872
-1850.65
-1526.35
-1130.09
-692.589
-233.308
-2602.52
-2164.94
-1615.53
-995.456
-336.129
-2549.29
-2100.56
-1555.86
-955.117
-322.36
-7548.98
-5547.1
-4111.17
-3527.84
-3507.77
-5795.72
-4091.92
-2761.96
-2158.11
-1438.33
-5914.97
-3549.59
-2385.46
-1572.94
-711.719
-4960.82
-3248.4
-2077.66
-1427.38
-796.363
-3584.46
-2195.34
-1325.52
-867.515
-404.613
-4400.21
-3244.32
-2205.41
-1296.1
-439.802
-5150.32
-3315.14
-2142.06
-1254.69
-454.963
-3094.96
-1864.36
-1117.05
-601.2
-199.892
-3272.74
-2497.44
-1735.28
-1024.91
-342.683
-3765.41
-2782.75
-1875.64
-1080.74
-356.152
-2695.31
-2076.25
-1449.38
-854.69
-283.718
-12698.6
-9328.21
-7146.28
-5899.72
-5161.71
-7133.57
-5075.95
-3602.1
-2344.32
-1003.08
-2623
-2025.38
-1428.39
-857.916
-292.217
-4632.46
-3645.46
-2622.64
-1604.19
-555.096
-6387.43
-4921.07
-3533.63
-2211.11
-814.342
-4523.25
-3583.7
-2603.05
-1609.49
-561.924
-4859.63
-3907.64
-2862.29
-1768.24
-609.941
-3580.74
-2888.93
-2111.01
-1292.83
-439.621
-2049.06
-1634.43
-1175.25
-706.672
-236.368
-2934.44
-2395.24
-1758.79
-1073.22
-361.343
-3142.72
-2474.76
-1766.24
-1061.94
-357.565
-3485.11
-2796.76
-2031.34
-1237.1
-419.139
-13301.9
-10587.4
-8381.4
-6944.05
-5552.41
-8655.53
-6061.74
-4477.92
-3137.12
-1502.15
-8611.57
-6632.88
-4839.2
-3380.49
-1553.83
-6568.24
-4877.33
-3553.91
-2324.61
-912.707
-6749.94
-5291.41
-3854.36
-2433.09
-891.272
-6779.35
-5001.73
-3622.74
-2358.74
-914.132
-2900.59
-2308.32
-1674.44
-1027.52
-353.535
-3846.42
-3143.35
-2314.9
-1418.44
-479.341
-5054.34
-4038.64
-2940.36
-1807.98
-621.466
-6138.7
-12562.8
-12960
-35773.6
-12662
-47493.5
-6955.96
-16939.7
-12669.7
-9732.25
-21243.5
-17628
-12503.1
-11613.7
-23648.1
-18543
-4537.9
-3390
-8850.88
-6125.92
-10151.9
-7665.86
-27451.8
-20403.1
-16650.9
-12528.8
-17165.7
-10167.3
-1243.8
-4149.58
-44250.9
-57681
-26650.9
-33671.6
-58089.2
-74385.7
-28431.8
-33485.3
-33140.6
-45533.1
-26963.3
-36729.2
-18116.1
-27113.7
-2198.73
-584.057
-3885.67
-1329.56
-7477.5
-3371.37
-15221.3
-5518.73
-3256.32
-1872.01
-8163.22
-2579.58
-16888.3
-5325.07
-21913.6
-7410.86
-17608.8
-9227.72
-20501.1
-12154
-15782
-11372.1
-17944.4
-13799.7
-16603.9
-9733.78
-13073.3
-6860.23
-23286.3
-14712.5
-24292.4
-15447.1
-21123.5
-15792.7
-22346.9
-16464.1
-19563.9
-12215.8
-20924.5
-13016.9
-18365.9
-8208.38
-8079.17
-10814.1
-16407.5
-8426.14
-6123.79
-10729.3
-20300.2
-8374.12
-9769.57
-11035
-21552.9
-8631.45
-10967.8
-11632.6
-1261.29
-1157.34
-317.088
-1434.95
-5132.65
-5373.26
-3279.41
-6636.3
-2985.56
-3719.12
-5173.73
-9842.48
-12459.3
-9613.28
-10021.8
-12754.7
-8658.89
-7477.58
-8237.15
-7569.61
-14852.1
-13504.5
-12299.8
-10609.5
-7635.87
-6733.8
-14727.3
-1259.69
-940.519
-719.487
-809.949
-4802.34
-3781.49
-4142.27
-3655.87
-808.741
435.317
-4926.65
-3880.31
-10126.5
-10763.9
-9531.12
-8776.25
-7508.6
-5456.4
-9960.49
-7890.84
-9369.08
-7336.87
-11823.1
-11775.1
-10305.4
-7728.73
-7799.33
-5027.73
-7056.56
-4255.52
-10885.1
-6492.75
-9521.99
-4767.38
-8558.31
-9551.91
-13258.5
-17435.3
-14024
-20413.8
-6705.1
-7761.91
-8049.76
-2542.2
-7960.37
-15418.8
-7762.8
-16717.4
-13936.5
-25354.9
-14301.8
-26921
-6060.26
-13431.1
-5753.16
-14512.8
-8402.64
-6365.44
-12413.4
-4838.69
-7967.1
-1485.06
-10652.4
-959.143
-8409.06
-9793.91
-13128.7
-5993.09
-7131.77
-11690.6
-11725.2
-7899.86
-911.57
-842.515
-648.201
-746.655
-2875.74
-2111.16
-2664.17
-2430.39
1027.57
462.214
-3109.78
-3412.68
-10593.3
-9903.06
-7849.47
-6616.84
-4357.17
-3584.88
-6216.1
-5075.52
-6187.78
-4479.17
-18220
-15604.4
-8190.78
-6692.44
-6466.71
-4659.13
-5527.87
-3329.95
-6104.17
-2453.56
-5652.45
-9308.02
-4891.83
-9543.43
-8726.03
-10784.2
-9864.4
-13422.1
-947.621
-642.294
-666.637
-536.164
-3566.23
-2419.01
-2817.58
-1412.68
-1120.62
-1481.6
-8276.53
-8830.58
-4480.83
-3972.5
-9629.85
-10113.8
-15242.9
-17637.8
549.6
4195.86
-7325.43
-7215.33
-7131.27
-5657.62
-985.048
-864.675
-1057.84
-851.224
-1533.47
-913.029
-363.983
-254.167
-7842.2
-3343.34
-6647.74
-2761.33
-9234.8
-3427.74
-11144.9
-3750.98
-5321.19
-10245.2
-7051.36
-10755.9
-8923.11
-12049.7
-11897.6
-13076.6
-5051.61
-8881.56
-4498.8
-8820.2
-8334.13
-10874.9
-9672.04
-11278.6
-13858.9
-13751.2
-15280
-14302
-5473.22
-8750.01
-6129.4
-8986.16
-41.6562
-1633.18
-7192.85
-4420.25
-15.1286
-1678.53
-7111.92
-4220.02
-385.184
-1709.44
-7193.59
-4579.72
-635.806
-1695.4
-7094.1
-4503.97
-980.633
-1055.52
-888.708
-928.586
-1861.11
-1867.94
-1145.72
-1194.91
-7948.99
-7169.25
-3327.58
-3243
-3430.89
-4911.46
-3720.36
154.452
-1265.48
-982.976
-1176.06
-3510.53
2822.28
-368.497
-14274.3
-11744.5
-10158
-8399.58
-4735.08
-1043.39
-911.524
-1021.73
-1216.24
-1823.38
-1410.67
-1522.15
-1996.47
-7343.7
-7058.29
-3553.33
-4468.26
-4857.36
-6571.91
-2908.02
-4839.12
-4512.39
-4882.78
-759.59
-1164.07
-2099.52
-3197.11
-9660.74
-7787.83
-7351.55
-5285.75
-6097.51
-4268.92
-5043.1
-3528.48
-3239.93
-3458.31
-7928.74
-7734.04
-10796.6
-6904.42
-10322.8
-10922.9
-12993.3
-10858
-8630.8
-5222.59
-6247.34
-6144.43
-11867.1
-5672.19
-12725.2
-5786.5
-13969.9
-10722.9
-14812
-11059
-9515.22
-4015.69
-10181.9
-4103.84
-6563.09
-4892.67
-4631.83
-6216.36
-5536.66
-5708.87
-4569.22
-6489.12
-6839.71
-4475.27
-4661.08
-6652.93
-7857.64
-4416.88
-5504.61
-6409.14
-704.408
-614.395
-872.572
-669.231
-1233.57
-1490.76
-1244.07
-976.177
-6769.36
-5927.86
-2926.73
-1340.59
-7678.29
-7190.49
-5823.38
-5169.21
-4681.77
-4016.16
-1549.91
-1646.72
-3039.45
-1439.19
-8469.88
-7147.58
-4672.15
-3753.14
-3478.64
-2357.87
-2372.96
-1216.64
-3125.79
-91.725
-170.276
-73.3719
-25.3473
11.735
-139.064
-81.3346
-17.2614
16.8619
-465.942
-194.371
0.406613
103.289
-379.492
-204.138
8.34467
89.72
-784.541
-297.045
31.3448
238.267
-733.019
-331.357
-91.288
22.1412
-516.298
-224.891
-104.78
-32.1728
-418.362
-158.658
-9.25458
66.0923
-1212.6
-409.787
-116.966
55.8567
-1443.77
-407.758
-118.725
249.111
-1146.27
-384.284
-70.8359
148.607
-1303.81
-363.729
-138.291
217.215
-1146.86
-382.466
-49.6054
149.428
-1504.25
-424.177
-109.63
296.048
-1055.72
-334.439
6.84986
224.175
-1497.12
-415.035
-95.3516
319.388
-161.911
-62.3027
-10.5405
38.1956
-138.772
-46.8992
-22.8054
34.6521
-415.533
-160.97
-11.2753
104.688
-346.437
-121.215
-55.7409
91.5898
-847.153
-284.958
-19.7124
212.737
-764.136
-243.581
-76.4047
187.542
-925.484
-317.914
-51.7652
168.129
-699.157
-223.465
-94.3395
208.166
-1305.63
-359.414
-124.135
324.611
-100.672
-34.3797
-9.95415
24.7398
-46.5572
-22.2519
-7.89514
1.24486
-303.763
-100.095
-46.3624
55.3876
-152.6
-66.666
-32.1758
-2.15107
-542.817
-168.799
-72.4082
98.4796
-308.239
-118.058
-49.7999
-0.47366
-827.452
-244.084
-90.0829
152.284
-537.645
-175.882
-66.6144
2.38941
-1093.56
-297.608
-153.915
117.978
-720.953
-213.022
-94.6157
-10.6056
-1459.2
-388.41
-169.266
144.757
-716.389
-203.596
-82.3286
2.80665
-1401.68
-376.295
-186.663
115.578
-789.795
-223.633
-92.9271
-6.58419
-1453.38
-366.886
-139.341
190.536
-649.789
-169.715
-54.7563
25.7633
-1396.26
-328.081
-106.2
214.783
-588.469
-129.992
-27.0662
44.6024
-0.40122
-3.06897
-2.12032
-1.23492
-0.818888
-9.12002
-6.69776
-3.82869
-2.12125
-1.38527
0.223373
-7.11229
-4.93491
-2.86759
-1.899
-20.2902
-15.0902
-8.61719
-4.76148
-3.10427
4.42927
-8.51571
-6.08883
-3.5469
-2.34877
-27.5441
-20.2058
-11.4519
-6.30421
-4.10356
-14.0499
-10.3381
-5.86396
-3.22168
-2.0932
0.293202
-3.9959
-2.79461
-1.61839
-1.06754
-2.56043
-9.90943
-6.48777
-3.7027
-2.4367
4.71856
-3.0546
-2.37589
-1.40021
-0.929973
-14.6057
-14.3615
-8.38629
-4.65131
-3.03619
2.09796
-3.67025
-2.55463
-1.47571
-0.974703
9.13878
-4.20697
-3.55772
-2.13018
-1.41914
6.11781
-2.40807
-2.01384
-1.19648
-0.795081
22.3974
0.979998
-1.143
-0.88265
-0.622789
14.4565
0.978087
-0.399896
-0.354456
-0.255496
2.04438
-1.97852
-1.51449
-0.898995
-0.599475
-1.15751
-2.13659
-1.34643
-0.767372
-0.506391
1.35773
-6.04767
-4.12261
-2.38
-1.57314
-5.40955
-6.34034
-3.77579
-2.11514
-1.38699
11.0637
-6.12303
-4.73845
-2.79391
-1.85562
-10.3296
-9.55025
-5.46554
-3.02488
-1.97432
-13.7254
-11.963
-6.75383
-3.7198
-2.42536
-14.1581
-8.39118
-4.47233
-2.42887
-1.57638
-11.1494
-7.2046
-3.88619
-2.11883
-1.37779
-11.9178
-191.496
42.4574
-476.158
208.845
-633.477
615.234
-502.281
955.378
172.157
-655.83
-1247.26
456.292
223.851
-1179.83
-1938.8
-1544.88
-2245.66
-710.376
-170.162
-39.0164
-8.74533
-2.22724
-176.227
-101.436
-14.0835
-3.9708
-1.82515
-2193.05
-520.823
-119.721
-26.692
-6.80607
-416.556
-131.063
-34.2992
-7.49166
-2.10676
-3684.23
-874.383
-201.433
-45.0592
-11.4658
-726.754
-234.2
-59.6907
-14.3316
-3.70065
-4938.61
-1171.55
-270.784
-60.7515
-15.4805
-911.341
-305.426
-79.0859
-19.0223
-4.87445
-6175.43
-1472.9
-342.306
-77.1527
-19.7427
-1089
-384.185
-100.863
-24.3877
-6.29794
-7300.28
-1788.27
-420.777
-95.6124
-24.5823
-1770.51
-549.795
-137.574
-32.0472
-8.15826
-6814.1
-1663.73
-389.827
-88.2121
-22.6052
-1362.99
-460.997
-118.971
-28.2983
-7.21985
-7516.74
-1844.27
-434.863
-98.9922
-25.4964
-2015.92
-605.672
-149.372
-34.3183
-8.71534
-7835.51
-1907.1
-450.47
-102.53
-26.3991
-2099.61
-632.475
-157.341
-33.6337
-9.02805
-505.465
-7367.71
-6444.4
-2200.02
-1606.08
-875.879
-3750.63
-2598.32
-6785.2
-6297.07
-3263.52
-2415.34
-249.684
-396.284
-703.259
-1181.16
-1836.51
-2637.69
-184.537
-410.937
-877.089
-1574.45
-2458.45
-3432.71
-187.052
-85.9276
-331.628
-224.103
-629.422
-513.975
-1087
-995.11
-1622.65
-1535.9
-2227.76
-1969.92
-3413.58
-4024.72
-4567.57
-7142.7
-8266.66
-9268.61
-4332.19
-4945.72
-5091.23
-4799.02
-4243.6
-3808.17
-225.106
-190.219
-144.083
-89.7512
-30.4681
-356.919
-301.245
-227.908
-141.835
-48.1253
-632.631
-533.19
-402.83
-250.435
-84.9282
-1060.77
-892.33
-672.955
-417.83
-141.607
-1645.22
-1380.17
-1038.3
-643.607
-217.967
-2353.63
-1966.19
-1474.01
-911.839
-308.607
-166.278
-140.412
-106.284
-66.1701
-22.4566
-369.842
-311.881
-235.756
-146.626
-49.7347
-788.41
-663.919
-501.205
-311.423
-105.583
-1412.78
-1187.37
-894.764
-555.282
-188.154
-2200.35
-1844.12
-1386.32
-859.024
-290.898
-3060.93
-2555.48
-1915.1
-1184.67
-400.994
-168.702
-142.623
-108.08
-67.3479
-22.867
-77.5104
-65.5399
-49.6753
-30.9583
-10.5122
-298.852
-252.402
-191.079
-118.973
-40.3781
-202.025
-170.695
-129.276
-80.5163
-27.3307
-566.627
-477.97
-361.403
-224.812
-76.2611
-462.901
-390.669
-295.535
-183.903
-62.3946
-977.028
-822.65
-620.92
-385.734
-130.76
-894.74
-753.636
-568.997
-353.537
-119.853
-1455
-1221.75
-919.796
-570.363
-193.178
-1377.67
-1157.13
-871.227
-540.202
-182.939
-1989.07
-1662.38
-1246.32
-770.752
-260.755
-1759.51
-1470.7
-1102.26
-681.209
-230.32
-3026.61
-2512.49
-1874.82
-1157.5
-391.829
-3530.21
-2902.16
-2152.65
-1328.02
-451.002
-3931.03
-3182.61
-2343.75
-1450.88
-498.944
-5935.13
-4694.23
-3438.85
-2166.14
-778.004
-6470.96
-4955.23
-3628.65
-2374.57
-941.151
-6940.96
-5202.44
-3813.47
-2568.81
-1091.83
-3842.59
-3191.38
-2382.64
-1471.63
-498.219
-4353.36
-3590.39
-2668.86
-1647.19
-558.675
-4430
-3618.54
-2676.79
-1654.23
-564.315
-4095.77
-3297.97
-2427.43
-1509.85
-523.64
-3491.74
-2745.89
-2012.21
-1275.14
-462.43
-3015.56
-2315.63
-1691.43
-1095.4
-417.503
-259.813
-428.847
-764.552
-1281.14
-1988.39
-2842.01
-198.067
-454.649
-959.049
-1703.35
-2634.76
-3637.68
-196.167
-93.0822
-361.683
-248.926
-688.397
-566.864
-1188.75
-1094.05
-1790.29
-1734.5
-2467.94
-2298.58
-3646.89
-4262.89
-4803.16
-7307.46
-8344.52
-9291.7
-4527.1
-5087.01
-5154.96
-4788.15
-4196.78
-3783.7
-234.311
-198.077
-150.099
-93.5312
-31.7576
-386.533
-326.543
-247.292
-154.023
-52.2848
-688.447
-580.947
-439.483
-273.514
-92.8105
-1152
-970.589
-733.178
-455.835
-154.602
-1784.23
-1499.83
-1130.72
-702.103
-238.004
-2541.64
-2129.07
-1600.62
-992.4
-336.288
-178.572
-150.904
-114.314
-71.2153
-24.1774
-409.596
-345.84
-261.775
-162.987
-55.3181
-863.062
-727.808
-550.252
-342.314
-116.135
-1530.46
-1288.36
-972.522
-604.372
-204.945
-2361.85
-1983.29
-1493.92
-927.191
-314.261
-3249.72
-2719.22
-2042.55
-1265.86
-428.909
-176.982
-149.684
-113.481
-70.7393
-24.0235
-84.0041
-71.073
-53.9035
-33.611
-11.4163
-326.167
-275.716
-208.927
-130.187
-44.2036
-224.572
-189.926
-143.987
-89.7546
-30.4811
-620.297
-523.854
-396.589
-246.952
-83.8197
-511.019
-431.793
-327.059
-203.733
-69.1634
-1069.84
-902.227
-682.124
-424.339
-143.958
-985.067
-831.155
-628.678
-391.211
-132.738
-1608.26
-1353.52
-1021.43
-634.615
-215.172
-1559.12
-1313.01
-991.377
-616.123
-208.92
-2209.85
-1853.38
-1394.58
-864.959
-293.097
-2060.57
-1730.11
-1302.79
-808.22
-273.844
-3243.35
-2702.31
-2023.98
-1253.27
-424.915
-3755.15
-3102.67
-2312.94
-1432.43
-487.434
-4159.6
-3391.74
-2515.08
-1564.91
-539.44
-6113.02
-4871.33
-3595.15
-2277.49
-820.367
-6572.62
-5065.62
-3733.61
-2455.91
-976.014
-6976.25
-5242.58
-3853.23
-2601.15
-1106.51
-4023.9
-3350.45
-2507.88
-1552.17
-526.073
-4487.7
-3711.08
-2766.11
-1710.95
-580.999
-4495.3
-3681.57
-2730.95
-1691.6
-577.869
-4094.28
-3304.54
-2438.88
-1520.99
-528.593
-3456.75
-2722.31
-1999.5
-1270.93
-462.455
-2996.47
-2301.75
-1682.91
-1091.68
-416.932
-20062.4
-14405.1
-4395.11
-3294.61
-2533.68
-3435.42
-3329.69
-12940.1
-14232.1
-11196.7
-12874.6
-7239.19
-10672.5
-5436.29
-5714.7
-4088.99
-20439
-10882.1
-3933.69
-6444.43
-8744.05
-5884.68
-6290.85
-4717.13
-2850.6
-4006.96
-4688.77
-4770.24
-19618.2
-12864.8
-12578.8
-8860.09
-8659.44
-9359.24
-4059.77
-5002.85
-6566.52
-13877
-11579.1
-9260.54
-8015.39
-6374.84
-9254.65
-6234.8
-4640.33
-3347.06
-1605.63
-3868.63
-3194.36
-2380.72
-1474.9
-502.334
-2936
-2450.95
-1838.11
-1138.64
-385.973
-2255.94
-1880.66
-1407.88
-870.509
-294.67
-3071.45
-2571.55
-1931.86
-1196.85
-405.347
-2956.92
-2459.35
-1838.86
-1137.17
-385.295
-9172.4
-7351.27
-5780.13
-4877.82
-4439.17
-10273.4
-8556.7
-6663.85
-5079.21
-2846.14
-7948.08
-5509.96
-4027.37
-2691.23
-1111.48
-9315.1
-7459.99
-5659.2
-3992.47
-1844.35
-6050.53
-4784.92
-3473.45
-2135.72
-734.983
-8273.13
-6097.29
-4366.94
-2710.09
-968.986
-4663.37
-3759.15
-2752.62
-1690.16
-575.245
-4882.08
-3921.87
-2865.52
-1758.53
-598.947
-3541.45
-2876.39
-2114.03
-1297.33
-439.726
-13975.4
-10787.2
-8547.98
-7062.58
-5935.24
-8320.33
-6251.2
-4615.9
-3053.23
-1278.76
-3363.91
-2709.24
-1988.15
-1227.89
-422.478
-5527.88
-4471.9
-3301.08
-2054.86
-714.985
-7268.03
-5772.12
-4258.2
-2708.98
-998.861
-5025.39
-4055.25
-2996.58
-1874.93
-657.438
-5444.35
-4439.21
-3294.62
-2054.02
-710.968
-4117.98
-3375.33
-2504.53
-1551.21
-530.225
-2499.35
-2052.64
-1519.92
-935.331
-316.765
-3544.49
-2936.5
-2188.93
-1351.6
-457.948
-4069.74
-3314.89
-2444.56
-1505.89
-512.751
-4164.53
-3411.9
-2528.49
-1562.96
-533.204
-13418.6
-10828.1
-8694.5
-7291.2
-5887.32
-8903.94
-6318.1
-4717.47
-3325.17
-1584.49
-9463.48
-7510.05
-5645.81
-3992.91
-1823.54
-6983.22
-5296.68
-3926.5
-2593.72
-1015.43
-7223.79
-5758.58
-4260.69
-2718.41
-999.199
-7373.49
-5587.96
-4140.08
-2728.87
-1057.7
-3510.9
-2859.28
-2119.04
-1319.14
-455.946
-4412.86
-3647.53
-2716.81
-1679.22
-569.991
-5667.22
-4604.8
-3406.49
-2118.56
-731.708
-411.089
-1188.73
-1928.03
-2656.1
-3366.54
-4042.1
-2857.52
-7642.03
-7168.17
-2761.18
-9644.73
-8131.76
-9507.09
-10489.3
-2612.14
-1679.18
-6076.15
-3426.62
-11358.6
-8196.52
366.432
-2303.41
-6325.15
-5836.01
-2204.13
-8135.63
-6546.01
-7893.15
-8818.6
-2159.17
-963.685
-5235.22
-1710.67
-9270.22
-4870.47
1898.96
-1659.42
-4739.88
-4342.45
-1585.65
-6329.25
-3780.76
-6283
-6854.32
-1610.82
-882.574
-3661.89
-1806.58
-7253.78
-1742.28
2050.3
-1195.26
-3597.22
-3343.97
-1179.3
-4734.39
-2164.3
-5102.27
-5899.77
-1192.05
-938.287
-2646.71
-1853.28
-6266.85
-194.352
1545.77
-945.503
-2994.13
-2818.97
-971.847
-3708.66
-1741.84
-4488.91
-5652.54
-924.992
-1036.74
-1856.25
-1799.5
-5406.34
8.42395
240.585
-821.621
-2623.35
-2550.55
-866.177
-3385.48
-2044.78
-4098.53
-5367.06
-698.516
-814.257
-1486.36
-1751.38
-5332.58
-937.876
-506.81
-1401.75
-3412.02
-5170.01
-2007.34
-5507.04
-9679.62
-7522.55
-10807.5
-970.505
-642.712
-3803.33
-2206
-1005.7
-9045.52
-4574.78
-1297.07
-3163.08
-4508.69
-1731.66
-5056.31
-8683.02
-6734.89
-9108.17
-986.931
-550.235
-3915.29
-2045.99
-182.421
-8798.35
-3316.3
-1126.89
-2757.22
-3639.33
-1370.88
-4552.15
-7625.9
-5651.49
-7871.47
-861.139
-630.138
-3285.73
-2105.93
-425.985
-6945.6
-3104.88
-956.426
-2448.53
-2959.74
-1090.42
-4182.95
-6782.93
-4945.56
-7020.98
-773.629
-626.114
-2976.25
-2149.99
-293.407
-6320.6
-3063.1
-850.769
-2175.45
-2584.43
-936.889
-3737.31
-6123.05
-4445.79
-6592.09
-711.948
-678.304
-2653.07
-2312.53
-472.372
-5973.4
-3097.4
-781.616
-1920.87
-2369.92
-851.408
-3418.53
-6014.63
-4083.48
-6331.17
-733.993
-794.513
-2340.57
-2200.48
-744.632
-6098.31
-3448.46
6554.79
8277.33
17060.9
25020.1
25514.5
43904.3
19501
49569.3
15832
34748
23707.3
36033.2
21186
27950.5
8020.1
9118.57
16295.5
18692.4
20878.1
20719.3
16362.4
20140.8
24032
21522.7
5466.86
4209.35
6695.13
4572.24
13785.9
11130.4
23473.2
17139.1
18073
18888.3
20256.1
19603
7325.69
5600.2
42556.4
56970.6
27557.3
33810.6
56876
73870.5
29446.9
33726.7
31728.1
44802.6
27782
36760.1
16377.8
26273.4
3031.01
1045.95
3096.12
1134.81
9650.85
3916.57
13189.2
4884.08
9512.81
3626.62
9920.61
3194.94
16834.8
5378.86
21697.9
7351.82
25937.7
13013
23751.7
14067.9
24079.4
15598.9
21200.8
15809.8
18898.3
11267.5
18968.2
9793.48
24528.8
15564.4
24599.4
15677.7
22417.5
16663.8
22692.5
16698.7
20389.6
12914.6
21115
13208.1
19417.6
8520.14
9092.09
11222.1
19486.4
9355.15
8025.57
11504.7
20547.7
8443.11
10235
11227.6
21569
8633.17
11096.3
11686.8
3908.83
4238.73
1359.26
2686.47
12020.8
12751
4738.1
8651.99
15468.6
17065.8
7734.85
13270.7
12278.2
575.486
14242.2
18084.7
10110.3
214.284
7101.54
13060.5
21318.1
15680.4
10710
13222.8
11865.1
10505
16613.6
3558.85
2840.92
2031.99
2030.29
10951.3
9008.8
6839.74
6439.37
13500
11036.2
8833.69
7850.8
5640.23
7323.99
11877.3
12457.9
14770.1
13377
16723.1
14331.7
11911
10041.9
9337.04
9469.85
12427.4
9267.77
11513.5
7874.26
10153.7
6581.47
12242.3
7840.59
10520.2
4261.49
9179.75
9586.19
12874.1
16370.6
14221.6
20405.1
7411.25
7884.14
9398.89
2254.95
8236.85
15537
7839.97
16768.9
14109.9
25271
14362.3
26944.4
6363.85
13556.6
5835.09
14557.5
8879.5
6381.12
12562.7
4715.52
8907.98
1000.74
10828.9
92.1847
8613.63
9853.64
13198.7
5971.21
7192
11715.5
11747.6
7903.44
2139.27
1854.22
1603.59
1597.24
1440.81
1254.38
7103.7
5518.12
4552.49
4709.37
3561.79
2939.09
8367.84
6879.71
6202.05
5573.75
4272.43
3915.34
6190.09
5154.4
4911.13
10640.9
7539.09
6111.72
10393.1
7153.17
5522.73
10829.1
8047.75
6766.54
7251.69
4469.18
3323.62
15275.2
12491.8
10331.1
10148.4
7961.38
6213.71
9387.87
6821.86
5056.54
8190.2
5523.75
3905.98
8927.79
4731.06
2442.74
10831.8
14577
8655.88
11085
11949.9
17410.4
10756
15478.3
56.2402
612.222
-433.133
76.5728
3002.2
3393.99
1296.26
789.892
764.498
2452.84
9638.28
13940.5
6653.65
3805.88
10400.3
10333.4
16282.7
17946.8
-588.08
-4288.27
7813.93
7335.78
7402.13
5692.97
890.941
483.644
602.825
274.33
2030.71
158.667
-231.427
-785.592
9272.1
2264.28
6398.58
1629.38
9236.47
2771.87
11148.9
3491.93
9244.34
12128.6
8490.68
11787.5
15077.8
15678.3
14325.6
14781.2
5698.98
9229.54
6614.58
9195.53
8978.34
11326.8
9867.16
11400.9
14906.5
14479.6
15582
14498.5
5731.42
8902.29
6204.49
9023.46
-331.891
1023.38
6930.21
3925.57
-843.678
634.474
6421.47
3449.82
115.685
1288.71
7063.29
4285.36
527.389
1528.16
7056.93
4404.03
-660.971
-746.969
128.441
-32.4868
-2878.14
-2863.28
-275.056
-471.682
-690.918
-1992.37
1406.62
714.436
-10158.5
-9883.28
-5463.42
-4239.27
-618.696
-10750.9
-10669.7
-4155.14
-6136.85
-1028.77
10712
8199.52
6954.12
6209.84
3392.35
-720.361
-620.425
-93.8466
-33.4722
-2383.22
-2183.73
-247.586
-79.2039
-2444.54
-2752.08
376.966
546.369
-5067.77
-2054.48
-7821.3
-4593.55
-3410.27
-2410.48
-3871.48
-3169.95
76.069
795.292
3929.3
2453.3
1149.81
-840.245
926.266
-693.386
1354.83
131.895
1437.85
1572.41
5148.77
4603.4
9765.06
5835.36
8237.35
8085.04
12461.4
9974.19
7362.71
4210.72
3617.03
3491.23
11514.5
5037.66
12644.2
5641.06
13893.8
10188.9
14813.1
10954.7
8972.03
3403.91
10036.7
3948.12
5375.18
4014.81
3621.36
5277.44
3366.67
3648.32
3048.31
4879.88
6245.99
3916.98
4105.04
6071.1
7677.67
4247.33
5327.95
6246.66
-575.722
-564.675
-617.518
-63.3568
-211.267
-226.115
-2175.7
-2188.62
-2136.65
-218.809
-604.473
-593.109
-2842.72
-2970.88
-2955.26
327.002
-607.729
-786.638
-965.703
-800.838
-500.825
-3069.59
-3043.92
-2770.46
-2454.38
-2660.59
-2564.72
-3055.95
-3097.81
-2942.79
879.452
-279.426
-356.208
3566.31
2048.4
1134.08
-631.474
-1517.66
-1978.63
-675.669
-1742.81
-2189.77
-335.782
-1443.51
-1746.36
1622.11
-368.884
-594.884
-21.6142
-23.0026
-24.388
-35.5288
-209.372
-104.042
-78.1629
-65.9071
-15.201
-48.3425
-114.007
-157.624
-357.202
-198.509
-212.626
-199.131
175.789
-6.55207
-165.637
-287.969
-121.831
-147.273
-175.642
-180.787
-10.1211
-82.221
-70.8562
-64.1753
191.893
21.4184
-69.5416
-110.574
781.885
177.615
-18.2003
-140.975
1186.04
285.4
55.9076
-261.473
523.972
81.6784
-88.5017
-241.114
965.875
216.962
66.8874
-220.696
839.879
207.685
-46.6098
-198.133
1333.86
337.849
61.0756