/*--------------------------------*- C++ -*----------------------------------*\
  =========                 |
  \\      /  F ield         | OpenFOAM: The Open Source CFD Toolbox
   \\    /   O peration     | Website:  https://openfoam.org
    \\  /    A nd           | Version:  11
     \\/     M anipulation  |
\*---------------------------------------------------------------------------*/
FoamFile
{
    format      ascii;
    class       volScalarField;
    location    "1.3";
    object      T;
}
// * * * * * * * * * * * * * * * * * * * * * * * * * * * * * * * * * * * * * //

dimensions      [0 0 0 1 0 0 0];

internalField   nonuniform List<scalar> 
5712
(
535.832
553.481
524.573
545.896
508.448
535.539
480.901
512.845
480.599
505.866
505.271
530.095
520.281
541.831
530.174
549.411
498.917
477.126
520.479
489.065
469.521
446.981
490.897
457.368
544.371
552.291
558.386
562.782
533.261
543.06
551.611
557.867
533.857
517.16
509.584
498.473
529.471
545.01
541.243
540.898
500.099
504.559
516.267
515.24
467.944
471.541
548.641
550.984
521.405
528.019
558.397
561.392
557.508
566.716
566.187
570.392
549.989
563.69
562.462
568.881
535.023
557.17
547.987
563.576
557.383
567.28
561.016
568.582
461.417
448.587
469.705
451.606
428.701
417.405
437.131
420.518
498.63
481.571
490.65
478.229
475.544
453.071
477.055
452.893
442.859
422.125
444.312
422.026
504.215
483.178
505.772
483.157
524.395
554.315
511.26
544.911
516.777
549.736
507.126
541.09
529.685
556.912
513.288
546.909
531.364
557.861
513.531
547.796
549.462
533.652
562.245
550.681
538.535
522.891
557.761
544.781
522.388
508.121
550.017
536.308
444.682
406.95
477.862
505.489
540.541
400.835
438.209
470.889
496.627
528.845
406.776
441.114
472.524
501.009
533.605
505.536
480.967
511.022
487.514
499.523
476.658
509.282
485.687
490.339
469.087
506.744
483.613
389.785
375.9
427.77
412.447
458.622
441.363
482.937
463.643
506.505
485.072
394.547
379.501
429.948
417.033
461.365
447.237
488.458
471.89
511.824
493.306
435.031
428.49
434.108
428.486
399.938
380.07
400.396
380.138
465.554
463.202
466.477
462.178
431.911
427.956
431.895
428.283
399.82
380.576
399.943
380.935
463.079
462.726
463.104
463.191
495.017
492.538
519.117
515.809
494.566
489.676
517.852
511.744
493.967
492.916
519.48
517.224
492.699
492.27
518.41
516.351
454.81
434.949
424.716
458.12
436.725
426.121
452.248
432.06
421.401
456.627
434.535
423.379
445.199
424.96
414.185
454.616
430.961
418.941
360.856
349.899
344.431
394.47
378.777
370.289
420.842
401.373
390.513
439.882
418.254
406.695
454.693
428.415
414.764
363.022
349.615
342.836
400.856
383.478
373.797
427.411
405.654
393.131
446.713
420.612
406.021
458.952
429.033
412.953
399.657
390.401
405.528
396.314
432.683
416.46
443.919
424.536
374.638
351.616
375.836
353.501
376.035
354.487
377.87
356.438
377.431
373.534
376.778
371.293
357.997
361.471
400.527
403.262
430.319
433.157
380.667
384.955
380.604
383.127
364.428
367.419
329.564
311.854
334.699
314.926
332.229
312.452
337.199
315.88
336.501
313.312
343.269
317.804
346.962
320.641
348.583
322.255
372.424
362.758
380.076
366.328
398.58
387.804
406.502
391.28
359.023
345.276
351.85
341.883
384.369
368.28
386.091
368.791
411.294
393.12
412.866
393.316
362.978
347.224
364.751
347.902
339.016
315.401
328.352
310.427
332.658
311.819
325.368
308.363
342.809
318.05
330.121
311.734
344.752
319.799
330.847
312.407
313.698
303.582
305.8
299.446
315.985
306.174
306.201
300.215
320.369
311.892
307.247
302.308
352.971
376.082
335.98
323.397
307.348
370.814
348.219
329.584
317.841
304.107
375.815
352.866
334.743
320.73
305.817
295.838
289.245
293.651
287.895
298.553
291.65
294.882
289.133
303.994
296.564
297.31
291.449
360.015
347.422
338.281
326.968
322.223
312.949
311.06
302.854
300.211
294.168
363.792
348.709
342.128
328.666
326.076
314.961
313.74
304.14
302.021
295.289
346.584
328.953
349.888
331.27
369.159
348.905
372.003
350.275
332.343
317.431
329.357
315.137
352.573
332.738
353.232
333.335
373.917
351.051
374.359
351.54
334.958
319.017
335.622
319.554
317.169
305.192
303.69
295.306
315.543
303.505
302.921
294.642
318.553
306.41
304.193
295.602
319.95
307.087
305.042
296.396
282.797
279.695
278.479
279.181
276.768
275.948
285.189
281.643
280.229
280.329
277.742
276.782
289.771
285.632
283.901
282.181
279.049
277.844
334.973
326.483
322.428
316.706
310.2
307.29
304.366
298.938
296.695
294.753
289.613
287.374
283.628
279.813
278.301
334.244
323.742
318.997
316.517
308.018
304.293
304.604
297.577
294.619
294.37
288.596
286.34
282.996
279.305
277.871
297.725
288.686
283.2
279.659
299.021
289.15
283.32
279.634
297.814
288.752
283.266
279.714
299.472
289.369
283.481
279.759
297.805
288.807
283.458
279.916
299.82
289.579
283.752
279.986
300.994
290.128
283.827
279.923
301.921
290.658
284.037
280.01
299.015
289.414
283.781
280.08
297.429
289.04
283.789
280.343
297.464
288.785
283.624
280.162
296.523
288.609
283.626
280.352
300.257
289.979
283.933
280.081
298.157
289.42
283.955
280.428
301.193
290.471
284.156
280.221
298.732
289.757
284.157
280.591
295.631
287.979
283.071
279.785
293.211
287.184
282.906
279.979
295.658
288.011
283.131
279.849
293.42
287.273
282.954
280.025
295.797
288.099
283.264
279.995
294.006
287.505
283.076
280.12
295.684
288.138
283.39
280.192
294.484
287.718
283.226
280.258
295.515
288.184
283.492
280.395
291.308
286.61
282.624
280.313
290.231
286.328
282.523
280.404
291.723
286.76
282.699
280.364
290.683
286.489
282.593
280.444
292.488
287.044
282.816
280.435
291.47
286.781
282.707
280.512
293.431
287.417
283.019
280.558
292.386
287.143
282.872
280.609
294.348
287.845
283.267
280.694
293.185
287.526
283.061
280.724
295.599
288.597
283.615
280.878
294.353
288.292
283.497
280.993
295.032
288.242
283.439
280.779
293.803
287.925
283.277
280.854
296.063
288.912
283.753
280.964
294.848
288.642
283.691
281.124
296.515
289.21
283.934
281.095
295.329
288.969
283.891
281.266
277.104
275.562
274.581
274.015
273.758
277.103
275.565
274.583
274.016
273.759
277.135
275.576
274.588
274.018
273.76
277.142
275.583
274.592
274.02
273.761
277.177
275.594
274.596
274.022
273.762
277.188
275.605
274.603
274.026
273.765
277.241
275.633
274.617
274.033
273.77
277.316
275.672
274.637
274.044
273.776
277.229
275.619
274.609
274.029
273.767
277.282
275.635
274.615
274.032
273.768
277.212
275.606
274.602
274.025
273.764
277.258
275.621
274.608
274.028
273.766
277.276
275.644
274.621
274.035
273.771
277.326
275.658
274.626
274.038
273.772
277.348
275.681
274.64
274.045
273.777
277.39
275.689
274.642
274.046
273.778
277.114
275.561
274.58
274.014
273.757
277.127
275.561
274.579
274.013
273.757
277.138
275.571
274.584
274.016
273.759
277.145
275.569
274.582
274.015
273.758
277.178
275.587
274.592
274.02
273.761
277.179
275.583
274.589
274.018
273.76
277.22
275.603
274.599
274.023
273.763
277.215
275.599
274.596
274.022
273.762
277.243
275.612
274.603
274.026
273.765
519.57
515.836
519.5
515.838
519.823
516.362
521.315
517.966
524.993
521.652
531.623
531.942
529.589
528.733
532.507
533.287
532.797
533.458
562.133
570.66
572.468
572.88
572.969
552.927
568.125
571.89
572.754
572.94
562.297
570.709
572.481
572.883
572.97
553.163
568.205
571.907
572.76
572.941
562.485
570.764
572.495
572.887
572.971
553.489
568.301
571.932
572.766
572.942
562.976
570.883
572.522
572.893
572.972
554.167
568.474
571.971
572.774
572.944
563.909
571.081
572.565
572.902
572.975
555.395
568.751
572.031
572.787
572.947
564.838
571.22
572.589
572.906
572.976
558.272
569.347
572.151
572.811
572.952
564.574
571.184
572.584
572.906
572.976
557.156
569.106
572.103
572.802
572.951
564.937
571.234
572.592
572.906
572.976
558.829
569.481
572.18
572.816
572.954
565.03
571.256
572.596
572.908
572.976
558.972
569.532
572.189
572.818
572.954
414.43
453.011
450.641
410.106
392.588
394.149
396.168
399.182
408.591
412.819
440.754
450.679
449.359
460.006
423.644
428.581
410.519
414.154
403.289
405.492
354.793
336.755
292.48
287.296
289.135
286.885
290.605
350.57
342.919
326.684
331.15
326.591
308.018
316.84
312.199
302.794
305.722
301.18
348.458
321.8
306
303.025
310.377
306.728
299.861
297.921
295.633
292.888
300.048
297.821
351.312
329.772
337.325
318.518
311.297
322.974
300.148
293.729
302.544
336.845
321.972
309.427
296.766
282.513
326.13
315.557
304.554
293.046
280.344
290.412
287.575
283.95
279.785
275.298
285.83
283.786
281.131
278.048
274.711
287.472
285.155
282.153
278.676
274.922
285.47
283.49
280.911
277.912
274.665
288.768
286.224
282.947
279.165
275.088
333.587
318.556
306.2
294.237
281.563
326.852
312.667
301.208
290.356
279.145
317.989
308.696
298.915
288.942
278.554
318.281
306.322
296.324
286.936
277.739
314.88
303.719
294.326
285.591
277.208
303.483
297.852
291.265
284.166
276.767
310.261
302.767
294.57
286.104
277.431
306.501
299.836
292.423
284.737
276.933
299.211
294.572
288.96
282.784
276.298
301.534
296.278
290.092
283.422
276.504
297.863
293.514
288.201
282.322
276.141
332.983
318.753
306.7
294.677
281.745
314.696
306.634
297.729
288.327
278.346
301.949
296.783
290.599
283.814
276.66
299.489
294.889
289.278
283.035
276.4
305.595
299.681
292.742
285.179
277.157
302.661
297.459
291.188
284.237
276.821
296.831
292.81
287.812
282.164
276.108
295.159
291.447
286.794
281.524
275.885
293.166
289.814
285.575
280.761
275.623
290.774
287.87
284.157
279.902
275.335
296.947
292.84
287.764
282.088
276.07
295.057
291.347
286.704
281.458
275.861
334.859
320.555
308.355
296.012
282.342
320.963
311.665
301.676
291.09
279.503
326.671
315.207
304.19
292.745
280.191
312.424
305.201
296.907
287.887
278.157
306.508
300.539
293.468
285.681
277.337
315.816
307.674
298.613
288.963
278.595
297.074
292.997
287.937
282.232
276.129
291.506
288.468
284.602
280.179
275.43
299.106
294.61
289.099
282.939
276.37
496.872
539.08
489.694
533.6
464.643
513.462
471.48
518.941
477.267
462.397
511.672
481.624
450.994
435.424
483.342
451.514
514.987
530.479
548.279
555.417
508.092
523.155
543.976
551.821
525.499
497.323
502.03
483.209
512.277
538.063
538.495
540.237
496.911
503.739
513.706
514.57
465.386
470.85
545.81
550.34
518.259
527.24
556.238
560.935
545.908
562.975
562.062
569.026
538.87
560.11
558.849
567.625
524.453
553.838
542.759
561.848
555.49
566.619
560.632
568.439
455.644
447.259
465.889
450.86
425.82
418.138
434.871
420.893
494.337
480.434
483.769
476.204
473.685
452.737
476.551
452.819
441.732
422.346
444.017
422.121
502.131
482.635
505.198
483.013
521.122
553.233
510.372
544.648
511.573
548.052
505.594
540.687
528.072
556.353
512.85
546.769
530.913
557.696
513.41
547.754
530.833
513.267
556.505
544.362
521.823
505.253
552.564
539.339
508.713
494.358
545.849
532.344
445.207
416.122
472.619
499.625
538.695
412.649
440.119
465.274
489.83
527.007
413.773
442.126
470.444
498.915
533.188
488.982
472.246
506.64
490.836
484.935
468.948
506.117
489.776
478.533
463.064
505.265
488.626
404.713
394.645
431.877
420.265
455.642
442.3
478.885
463.975
507.166
490.867
404.524
392.283
433.562
424.299
461.576
451.777
488.269
476.1
512.999
498.359
436.593
431.985
435.007
430.399
404.396
387.267
402.586
383.837
465.721
464.16
466.571
463.939
432.403
428.869
432.052
428.549
400.882
382.294
400.268
381.434
463.213
463.195
463.153
463.327
495.036
493.13
519.329
516.395
494.488
491.005
518.254
513.145
493.999
493.176
519.581
517.462
492.712
492.348
518.438
516.414
461.895
457.342
477.299
471.181
458.66
453.412
475.947
468.706
452.474
446.975
474.039
465.145
386.019
380.087
410.989
404.333
432.238
424.872
452.601
445.033
474.039
462.065
380.867
373.815
415.748
407.409
441.074
430.749
461.191
448.372
475.672
460.039
394.288
387.515
404.144
395.241
421.374
409.373
439.969
421.115
375.378
355.488
379.314
358
375.069
357.603
379.565
360.008
378.18
372.661
377.596
371.764
360.535
363.888
400.067
403.138
428.755
432.716
381.138
385.093
381.104
383.298
365.902
367.921
339.934
321.433
341.674
322.427
341.634
321.328
342.981
322.275
344.85
321.206
347.663
322.986
349.459
323.792
349.428
323.337
376.595
368.313
381.682
369.328
399.242
391.21
406.186
393.079
362.299
348.984
358.679
348.453
385.086
369.81
386.315
369.279
411.076
394.038
412.824
393.62
364.569
349.154
365.235
348.512
343.699
319.814
332.167
313.666
341.133
318.471
331.802
313.378
345.216
320.589
332.159
313.556
345.488
320.619
331.494
312.996
336.527
332.029
319.081
315.406
338.106
333.825
318.805
315.309
340.664
337.25
318.458
315.551
370.663
391.411
353.912
337.955
316.436
389.538
370.321
353.425
337.048
314.985
387.81
366.347
347.29
331.064
312.826
326.726
320.768
310.609
303.474
329.04
323.317
311
304.126
332.784
327.433
311.651
305.076
382.39
373.618
363.818
356.432
347.667
341.878
331.749
326.03
311.281
304.925
379.029
366.371
358.504
347.038
340.705
330.795
325.31
316.094
309.329
302.276
354.776
338.732
354.01
336.254
376.392
358.658
375.469
355.143
336.547
321.972
337.167
323.631
354.538
335.084
353.824
334.016
375.528
353.315
374.842
352.193
337.035
321.204
336.254
320.195
320.91
308.8
306.523
297.801
322.125
309.963
307.543
298.835
320.5
308.213
305.737
296.917
320.573
307.644
305.526
296.792
315.963
314.287
291.855
290.78
319.099
317.065
292.715
291.493
323.155
319.805
293.688
291.064
365.944
360.516
349.829
345.304
336.416
332.721
320.086
315.37
292.924
288.703
355.263
349.871
337.177
332.776
321.99
318.341
306.769
303.225
288.195
284.993
303.695
292.035
285.04
280.67
304.196
292.163
285.009
280.571
303.365
291.89
284.983
280.642
303.959
292.019
284.976
280.586
302.722
291.626
285.028
280.765
303.463
291.761
285.015
280.695
303.333
291.565
284.664
280.397
302.745
291.172
284.339
280.183
302.004
291.232
284.862
280.715
299.734
290.501
284.703
280.926
301.619
291.227
285.04
280.966
299.91
290.684
284.865
281.097
302.081
291.116
284.623
280.499
299.506
290.295
284.519
280.808
301.809
290.859
284.394
280.366
299.179
290.049
284.349
280.722
302.735
291.776
285.122
280.915
301.342
291.415
285.17
281.252
302.405
291.648
285.096
280.921
301.151
291.34
285.133
281.245
301.869
291.44
285.089
280.985
300.883
291.215
285.082
281.24
300.907
291.104
285.05
281.107
300.454
291.04
285.049
281.272
299.945
290.793
284.995
281.266
299.972
291.113
285
281.79
299.04
290.949
284.991
282.003
299.931
291.072
284.991
281.79
299.017
290.909
284.973
281.993
299.795
290.978
284.926
281.749
298.906
290.821
284.912
281.959
299.495
290.817
284.889
281.725
298.639
290.675
284.848
281.924
298.951
290.578
284.846
281.711
298.105
290.464
284.763
281.88
297.775
290.022
284.516
281.515
296.715
289.87
284.482
281.69
298.309
290.3
284.685
281.617
297.353
290.178
284.637
281.799
297.312
289.753
284.3
281.366
296.183
289.565
284.28
281.548
296.92
289.487
284.116
281.231
295.754
289.268
284.084
281.406
277.611
275.822
274.713
274.084
273.802
277.585
275.815
274.711
274.083
273.802
277.597
275.813
274.708
274.081
273.8
277.563
275.801
274.703
274.079
273.799
277.583
275.802
274.701
274.078
273.798
277.536
275.785
274.694
274.074
273.796
277.483
275.759
274.681
274.067
273.791
277.407
275.72
274.661
274.057
273.785
277.543
275.78
274.69
274.072
273.794
277.559
275.776
274.686
274.069
273.793
277.583
275.795
274.697
274.075
273.796
277.591
275.789
274.693
274.073
273.795
277.491
275.756
274.678
274.065
273.79
277.514
275.754
274.675
274.064
273.789
277.422
275.72
274.66
274.056
273.784
277.455
275.723
274.66
274.055
273.784
277.649
275.831
274.716
274.086
273.803
277.682
275.837
274.718
274.086
273.803
277.64
275.825
274.712
274.083
273.802
277.675
275.832
274.715
274.085
273.802
277.627
275.814
274.706
274.08
273.8
277.66
275.822
274.709
274.082
273.8
277.621
275.804
274.7
274.077
273.797
277.638
275.81
274.703
274.078
273.798
277.611
275.798
274.697
274.075
273.796
520.188
518.319
520.547
518.646
521.47
519.544
523.313
521.212
526.631
524.313
532.015
532.463
530.383
529.898
532.686
533.503
532.849
533.517
562.483
570.755
572.491
572.885
572.971
553.767
568.335
571.938
572.765
572.942
562.681
570.805
572.503
572.888
572.971
554.056
568.418
571.955
572.771
572.943
562.915
570.861
572.517
572.891
572.972
554.438
568.515
571.978
572.776
572.945
563.4
570.971
572.541
572.897
572.973
555.091
568.674
572.014
572.783
572.946
564.231
571.148
572.58
572.905
572.975
556.154
568.916
572.066
572.794
572.949
564.933
571.244
572.595
572.908
572.976
558.5
569.409
572.166
572.814
572.953
564.755
571.226
572.594
572.908
572.976
557.605
569.217
572.128
572.807
572.952
564.982
571.246
572.595
572.907
572.976
558.93
569.511
572.187
572.818
572.954
565.044
571.26
572.597
572.908
572.976
559
569.541
572.191
572.819
572.954
414.116
452.366
448.519
409.182
400.596
407.503
398.254
406.82
429.35
447.837
433.395
449.737
275.691
276.089
276.967
278.419
280.599
283.693
276.014
276.435
277.359
278.867
281.077
284.125
275.451
275.335
275.864
275.782
276.78
276.783
278.311
278.495
280.589
281.017
283.656
284.113
287.904
293.39
300.397
309.066
317.643
323.289
288.134
293.153
299.119
305.59
311.406
315.027
275.432
275.061
274.566
273.978
273.332
275.791
275.364
274.795
274.121
273.381
276.582
276.032
275.301
274.435
273.488
277.888
277.133
276.133
274.953
273.663
279.846
278.78
277.375
275.724
273.924
282.615
281.101
279.12
276.805
274.29
275.723
275.307
274.753
274.094
273.372
276.102
275.627
274.994
274.244
273.423
276.934
276.328
275.524
274.574
273.535
278.289
277.469
276.385
275.109
273.716
280.271
279.134
277.639
275.887
273.979
282.996
281.415
279.352
276.948
274.339
275.216
274.878
274.428
273.892
273.303
275.111
274.789
274.36
273.85
273.289
275.588
275.193
274.666
274.04
273.354
275.514
275.131
274.619
274.011
273.344
276.413
275.89
275.194
274.369
273.465
276.417
275.894
275.197
274.371
273.466
277.792
277.053
276.073
274.916
273.651
277.958
277.194
276.18
274.983
273.673
279.839
278.777
277.374
275.724
273.924
280.224
279.102
277.619
275.876
273.976
282.586
281.081
279.107
276.798
274.288
282.999
281.429
279.37
276.961
274.343
286.365
284.228
281.46
278.251
274.78
291.211
288.235
284.442
280.091
275.403
297.32
293.232
288.139
282.373
276.18
304.718
299.19
292.526
285.103
277.128
311.783
304.759
296.618
287.7
278.071
316.334
308.309
299.229
289.381
278.699
286.564
284.388
281.577
278.323
274.804
291.003
288.064
284.316
280.014
275.377
296.231
292.359
287.502
281.98
276.045
301.832
296.917
290.869
284.064
276.758
306.791
300.91
293.812
285.898
277.395
309.852
303.364
295.623
287.034
277.793
275.731
276.218
277.205
278.802
281.183
284.551
276.059
276.574
277.611
279.262
281.651
284.913
275.49
275.374
275.989
275.91
277.016
277.031
278.706
278.922
281.214
281.701
284.633
285.236
289.085
294.846
301.995
310.515
318.632
323.636
289.141
294.326
300.335
306.662
312.139
315.286
275.469
275.093
274.59
273.993
273.338
275.907
275.463
274.871
274.168
273.397
276.797
276.216
275.441
274.523
273.518
278.236
277.43
276.36
275.096
273.712
280.377
279.234
277.723
275.943
273.999
283.398
281.772
279.636
277.13
274.402
275.764
275.342
274.779
274.111
273.377
276.228
275.735
275.076
274.296
273.44
277.163
276.523
275.673
274.668
273.567
278.648
277.776
276.62
275.257
273.766
280.794
279.581
277.983
276.103
274.053
283.715
282.032
279.827
277.247
274.441
275.251
274.909
274.451
273.906
273.308
275.146
274.82
274.384
273.864
273.294
275.702
275.29
274.74
274.086
273.369
275.63
275.23
274.694
274.058
273.36
276.628
276.073
275.334
274.457
273.495
276.641
276.085
275.343
274.462
273.497
278.151
277.36
276.308
275.063
273.701
278.346
277.525
276.433
275.142
273.728
280.408
279.262
277.746
275.958
274.005
280.847
279.635
278.029
276.134
274.064
283.478
281.846
279.695
277.168
274.415
284.024
282.308
280.045
277.387
274.489
287.446
285.158
282.178
278.705
274.935
292.55
289.395
285.343
280.664
275.6
298.802
294.527
289.154
283.024
276.405
306.081
300.398
293.486
285.727
277.346
312.729
305.609
297.304
288.154
278.233
316.67
308.614
299.478
289.547
278.759
287.486
285.181
282.19
278.711
274.937
292.08
288.995
285.039
280.473
275.534
297.354
293.337
288.265
282.467
276.213
302.83
297.792
291.558
284.507
276.912
307.478
301.517
294.294
286.21
277.504
310.097
303.581
295.796
287.147
277.833
355.355
337.225
294.343
288.691
291.336
288.516
292.685
359.268
356.388
335.338
346.355
314.726
325.953
308.479
312.311
306.235
353.776
327.512
311.265
307.09
315.131
310.152
302.114
300.863
299.533
295.983
304.54
301.372
353.157
331.169
340.831
320.694
314.128
327.139
302.937
296.334
305.982
337.465
322.556
309.932
297.131
282.66
326.606
316.002
304.928
293.306
280.443
292.125
289.058
285.101
280.516
275.55
287.107
284.884
281.979
278.584
274.894
289.485
286.886
283.488
279.521
275.212
286.96
284.77
281.898
278.535
274.878
290.675
287.87
284.221
279.973
275.365
343.103
327.479
313.646
299.331
283.51
341.179
325.857
311.985
297.491
281.628
326.59
316.62
305.383
293.221
280.075
334.344
320.857
308.102
294.66
280.445
309.859
303.541
295.797
287.101
277.786
319.148
310.835
301.079
290.356
278.914
304.557
299.3
292.699
285.192
277.131
307.862
301.972
294.654
286.388
277.536
302.629
297.744
291.557
284.489
276.892
338.682
324.207
311.329
297.898
283.03
320.263
311.714
301.861
291.06
279.32
306.909
301.18
294.087
286.067
277.441
303.293
298.241
291.924
284.739
276.99
310.108
303.712
295.961
287.274
277.889
305.879
300.308
293.449
285.701
277.33
298.924
294.643
289.251
283.088
276.428
297.885
293.826
288.656
282.714
276.295
296.762
292.935
288.005
282.309
276.155
293.615
290.323
286.058
281.108
275.749
301.134
296.513
290.651
283.939
276.709
298.35
294.222
288.954
282.896
276.356
336.869
322.443
309.977
297.172
282.816
322.351
312.948
302.741
291.817
279.775
330.248
318.558
307.008
294.68
280.91
314.516
307.094
298.444
288.905
278.52
309.188
302.931
295.383
286.931
277.775
319.877
311.39
301.651
290.987
279.321
299.667
295.268
289.72
283.377
276.525
293.906
290.549
286.22
281.209
275.784
302.316
297.435
291.327
284.373
276.866
278.121
288.102
297.446
305.805
312.664
317.979
475.767
469.441
444.842
450.95
459.319
449.916
434.848
423.945
496.354
512.897
489.487
504.202
479.527
470.481
491.638
464.855
459.761
435.948
440.819
451.256
443.038
427.713
418.454
485.094
496.661
479.127
489.137
469.875
461.576
478.297
449.62
445.952
423.494
426.996
439.445
432.892
417.249
409.571
467.952
478.794
463.243
472.944
456.237
449.35
464.283
433.74
431.098
410.393
413
426.014
420.447
405.498
399.024
451.538
462.948
447.82
458.21
442.21
435.677
450.661
422.161
420.07
400.821
402.97
415.754
411.011
396.647
390.836
439.058
451.328
435.942
447.57
431.516
425.825
441.088
414.286
412.469
394.277
396.193
408.684
404.644
390.474
385.154
430.847
444.977
428.039
441.333
424.453
419.481
434.882
393.553
390.452
416.768
421.205
386.18
380.905
409.589
400.882
370.849
350.52
370.026
352.326
366.465
366.029
355.153
388.98
386.112
410.37
414.197
382.147
377.277
404.069
396.081
366.122
346.743
365.451
348.658
362.13
362.134
351.213
381.734
379.241
400.835
403.864
375.778
371.381
395.691
388.91
361.258
342.249
360.522
343.927
357.558
357.478
346.204
372.881
370.764
390.086
392.497
367.589
363.256
385.852
379.639
354.407
336.891
353.78
338.301
351.134
350.942
340.467
365.914
364.03
382.007
384.08
361.221
357.176
378.279
372.659
348.718
333.054
348.174
334.068
346.018
345.722
336.129
360.996
359.265
376.428
378.313
356.852
353.31
372.994
367.854
345.146
330.494
344.705
331.438
342.785
342.632
333.608
536.497
554.045
524.606
545.849
508.46
535.518
480.889
512.824
480.585
505.841
505.291
530.078
520.338
541.807
530.956
550.121
498.913
477.117
520.462
489.053
469.505
446.966
490.878
457.352
544.881
552.643
558.792
563.047
533.259
543.043
551.549
557.819
533.833
517.152
509.569
498.463
529.459
544.985
541.237
540.893
500.089
504.551
516.256
515.232
467.931
471.53
548.633
550.98
521.395
528.012
558.389
561.39
557.751
566.81
566.354
570.454
549.966
563.68
562.43
568.869
535.009
557.163
547.969
563.569
557.375
567.277
561.013
568.581
461.407
448.579
469.695
451.598
428.689
417.395
437.119
420.508
498.62
481.564
490.641
478.222
475.534
453.063
477.046
452.885
442.848
422.116
444.301
422.017
504.207
483.172
505.764
483.15
524.386
554.311
511.255
544.909
516.767
549.731
507.12
541.087
529.679
556.909
513.283
546.907
531.358
557.859
513.527
547.794
549.78
534.011
562.376
550.861
538.508
522.863
557.749
544.761
522.373
508.106
550.009
536.299
444.674
406.941
477.854
505.48
540.536
400.827
438.201
470.88
496.617
528.839
406.767
441.106
472.517
501.002
533.602
505.881
481.23
511.259
487.698
499.501
476.65
509.273
485.686
490.326
469.08
506.738
483.611
389.779
375.896
427.763
412.442
458.615
441.358
482.928
463.637
506.5
485.07
394.54
379.495
429.941
417.028
461.359
447.232
488.452
471.886
511.82
493.303
435.024
428.484
434.101
428.48
399.931
380.064
400.388
380.132
465.548
463.197
466.471
462.173
431.904
427.95
431.888
428.277
399.813
380.57
399.936
380.93
463.073
462.721
463.098
463.186
495.012
492.534
519.114
515.806
494.561
489.672
517.848
511.741
493.963
492.912
519.477
517.221
492.694
492.266
518.407
516.348
455.019
435.115
424.867
458.284
436.861
426.239
452.25
432.066
421.407
456.631
434.545
423.389
445.198
424.963
414.189
454.617
430.966
418.948
360.853
349.898
344.431
394.467
378.776
370.289
420.84
401.373
390.514
439.88
418.255
406.698
454.693
428.418
414.769
363.018
349.613
342.835
400.853
383.477
373.797
427.408
405.653
393.133
446.711
420.612
406.023
458.95
429.034
412.956
399.606
390.371
405.478
396.285
432.649
416.438
443.884
424.514
374.533
351.625
375.692
353.481
375.953
354.434
377.792
356.394
377.386
373.486
376.747
371.26
357.955
361.432
400.505
403.246
430.301
433.143
380.637
384.936
380.58
383.11
364.4
367.402
329.58
311.845
334.702
314.908
332.207
312.444
337.183
315.875
336.477
313.303
343.245
317.796
346.942
320.632
348.569
322.248
372.405
362.745
380.058
366.316
398.564
387.792
406.486
391.269
359.004
345.265
351.831
341.871
384.354
368.27
386.079
368.782
411.28
393.11
412.854
393.307
362.962
347.215
364.739
347.894
339.001
315.393
328.343
310.422
332.644
311.812
325.359
308.357
342.795
318.043
330.113
311.729
344.742
319.792
330.84
312.402
313.651
303.519
305.786
299.426
315.98
306.173
306.196
300.211
320.359
311.886
307.24
302.304
352.959
376.072
335.969
323.387
307.342
370.805
348.209
329.575
317.833
304.102
375.805
352.855
334.732
320.721
305.811
295.781
289.189
293.64
287.885
298.554
291.654
294.879
289.13
303.991
296.563
297.306
291.447
360.008
347.417
338.274
326.963
322.217
312.945
311.055
302.851
300.207
294.165
363.785
348.703
342.12
328.661
326.068
314.957
313.734
304.137
302.016
295.286
346.576
328.948
349.88
331.264
369.15
348.899
371.995
350.269
332.335
317.426
329.349
315.132
352.566
332.732
353.225
333.33
373.91
351.046
374.352
351.535
334.951
319.013
335.616
319.55
317.163
305.188
303.686
295.303
315.537
303.501
302.917
294.639
318.548
306.406
304.189
295.599
319.945
307.083
305.038
296.393
282.746
279.641
278.424
279.184
276.758
275.934
285.194
281.648
280.233
280.327
277.742
276.782
289.772
285.634
283.903
282.18
279.049
277.844
334.97
326.481
322.427
316.703
310.199
307.289
304.364
298.937
296.695
294.752
289.613
287.374
283.627
279.813
278.301
334.24
323.74
318.996
316.514
308.016
304.292
304.601
297.576
294.618
294.368
288.595
286.34
282.995
279.305
277.871
297.719
288.682
283.195
279.654
299.006
289.142
283.314
279.629
297.811
288.751
283.265
279.714
299.469
289.368
283.481
279.759
297.802
288.805
283.457
279.916
299.816
289.577
283.751
279.986
300.99
290.127
283.826
279.923
301.918
290.656
284.036
280.009
299.011
289.412
283.779
280.079
297.426
289.038
283.788
280.342
297.46
288.783
283.623
280.161
296.52
288.607
283.625
280.352
300.254
289.977
283.932
280.081
298.153
289.419
283.954
280.427
301.19
290.469
284.155
280.221
298.73
289.755
284.156
280.59
295.628
287.977
283.068
279.781
293.205
287.181
282.904
279.975
295.655
288.009
283.13
279.849
293.418
287.272
282.954
280.025
295.794
288.098
283.263
279.995
294.003
287.503
283.075
280.119
295.681
288.136
283.389
280.191
294.481
287.717
283.226
280.258
295.512
288.182
283.49
280.394
291.302
286.606
282.622
280.31
290.222
286.323
282.521
280.402
291.722
286.759
282.698
280.364
290.682
286.489
282.592
280.444
292.486
287.043
282.815
280.434
291.468
286.78
282.706
280.511
293.428
287.415
283.018
280.558
292.384
287.141
282.871
280.609
294.345
287.843
283.266
280.693
293.182
287.525
283.06
280.723
295.596
288.595
283.614
280.878
294.351
288.29
283.495
280.992
295.029
288.24
283.438
280.778
293.8
287.923
283.276
280.853
296.061
288.91
283.752
280.963
294.846
288.64
283.69
281.124
296.512
289.208
283.933
281.094
295.327
288.967
283.89
281.266
277.103
275.562
274.581
274.015
273.758
277.101
275.564
274.583
274.016
273.758
277.135
275.576
274.588
274.018
273.76
277.142
275.583
274.592
274.02
273.761
277.177
275.594
274.596
274.022
273.762
277.188
275.605
274.602
274.026
273.765
277.241
275.633
274.617
274.033
273.77
277.315
275.672
274.637
274.044
273.776
277.229
275.619
274.608
274.029
273.767
277.282
275.635
274.615
274.032
273.768
277.211
275.606
274.601
274.025
273.764
277.258
275.621
274.608
274.028
273.766
277.276
275.644
274.621
274.035
273.771
277.326
275.657
274.626
274.038
273.772
277.347
275.681
274.64
274.045
273.777
277.389
275.689
274.642
274.046
273.778
277.113
275.56
274.579
274.014
273.757
277.126
275.56
274.578
274.013
273.757
277.138
275.571
274.584
274.016
273.759
277.145
275.568
274.582
274.015
273.758
277.177
275.587
274.592
274.02
273.761
277.179
275.583
274.589
274.018
273.76
277.22
275.603
274.599
274.023
273.763
277.215
275.599
274.596
274.022
273.762
277.242
275.612
274.603
274.025
273.764
519.634
515.915
519.513
515.848
519.826
516.365
521.314
517.965
524.991
521.651
531.621
531.94
529.587
528.731
532.505
533.285
532.795
533.456
562.203
570.678
572.473
572.881
572.97
552.967
568.137
571.893
572.755
572.94
562.292
570.708
572.481
572.883
572.97
553.168
568.207
571.908
572.76
572.941
562.485
570.764
572.495
572.887
572.971
553.491
568.302
571.932
572.766
572.942
562.976
570.883
572.522
572.893
572.972
554.167
568.474
571.971
572.774
572.944
563.909
571.081
572.565
572.902
572.975
555.395
568.751
572.031
572.787
572.947
564.837
571.22
572.589
572.906
572.976
558.271
569.346
572.151
572.811