/*--------------------------------*- C++ -*----------------------------------*\
  =========                 |
  \\      /  F ield         | OpenFOAM: The Open Source CFD Toolbox
   \\    /   O peration     | Website:  https://openfoam.org
    \\  /    A nd           | Version:  11
     \\/     M anipulation  |
\*---------------------------------------------------------------------------*/
FoamFile
{
    format      ascii;
    class       volScalarField;
    location    "8.5";
    object      epsilon;
}
// * * * * * * * * * * * * * * * * * * * * * * * * * * * * * * * * * * * * * //

dimensions      [0 2 -3 0 0 0 0];

internalField   nonuniform List<scalar> 
700
(
2.16797e-05
2.16797e-05
2.16797e-05
2.16797e-05
2.16797e-05
2.16797e-05
2.16797e-05
2.16797e-05
2.16797e-05
2.16797e-05
2.16797e-05
2.16797e-05
2.16797e-05
2.16797e-05
2.16797e-05
2.16797e-05
2.16797e-05
2.16797e-05
2.16797e-05
2.16797e-05
2.16797e-05
2.16797e-05
2.16797e-05
2.16797e-05
2.16797e-05
2.16797e-05
2.16797e-05
2.16797e-05
2.16797e-05
2.16797e-05
2.16797e-05
2.16797e-05
2.16797e-05
2.16797e-05
2.16797e-05
2.16797e-05
2.16797e-05
2.16797e-05
2.16797e-05
2.16797e-05
2.16797e-05
2.16797e-05
2.16797e-05
2.16797e-05
2.16797e-05
2.16797e-05
2.16797e-05
2.16797e-05
2.16797e-05
2.16797e-05
2.16797e-05
2.16797e-05
2.16797e-05
2.16797e-05
2.16797e-05
2.16797e-05
2.16797e-05
2.16797e-05
2.16797e-05
2.16797e-05
2.16798e-05
2.16798e-05
2.16798e-05
2.16798e-05
2.16798e-05
2.16797e-05
2.16797e-05
2.16797e-05
2.16797e-05
2.16797e-05
2.1682e-05
2.16813e-05
2.16806e-05
2.16801e-05
2.16799e-05
2.16798e-05
2.16797e-05
2.16795e-05
2.16792e-05
2.1679e-05
2.17183e-05
2.17058e-05
2.16934e-05
2.16856e-05
2.16818e-05
2.168e-05
2.16785e-05
2.16759e-05
2.16717e-05
2.16667e-05
2.21996e-05
2.19837e-05
2.18233e-05
2.17367e-05
2.16974e-05
2.16792e-05
2.16641e-05
2.164e-05
2.15939e-05
2.15074e-05
2.41894e-05
2.29863e-05
2.22359e-05
2.18953e-05
2.17461e-05
2.16727e-05
2.16201e-05
2.15684e-05
2.15154e-05
2.14987e-05
2.36223e-05
2.30747e-05
2.24252e-05
2.20426e-05
2.18393e-05
2.17338e-05
2.16706e-05
2.16182e-05
2.15622e-05
2.15139e-05
2.28042e-05
2.27803e-05
2.24029e-05
2.21167e-05
2.19253e-05
2.1807e-05
2.17345e-05
2.16842e-05
2.16391e-05
2.15926e-05
2.18348e-05
2.22e-05
2.21284e-05
2.2023e-05
2.19213e-05
2.18385e-05
2.17773e-05
2.17328e-05
2.16974e-05
2.16634e-05
2.08479e-05
2.14456e-05
2.16395e-05
2.17322e-05
2.1765e-05
2.17658e-05
2.17523e-05
2.17344e-05
2.17161e-05
2.16973e-05
2.00068e-05
2.06874e-05
2.10631e-05
2.1315e-05
2.14773e-05
2.15769e-05
2.16346e-05
2.16655e-05
2.16799e-05
2.16846e-05
1.94719e-05
2.01335e-05
2.05975e-05
2.09396e-05
2.11861e-05
2.13595e-05
2.14782e-05
2.1557e-05
2.16078e-05
2.16393e-05
1.93576e-05
1.99585e-05
2.04311e-05
2.07907e-05
2.10598e-05
2.12573e-05
2.13993e-05
2.1499e-05
2.15675e-05
2.16135e-05
1.97131e-05
2.02329e-05
2.06389e-05
2.09449e-05
2.11728e-05
2.13398e-05
2.14603e-05
2.15461e-05
2.16068e-05
2.16499e-05
2.05754e-05
2.0886e-05
2.11126e-05
2.12882e-05
2.1421e-05
2.15195e-05
2.15923e-05
2.16479e-05
2.16944e-05
2.17391e-05
2.13702e-05
2.13467e-05
2.14045e-05
2.14778e-05
2.15442e-05
2.15976e-05
2.16386e-05
2.16699e-05
2.16939e-05
2.17113e-05
2.15044e-05
2.1507e-05
2.15311e-05
2.15654e-05
2.16002e-05
2.16303e-05
2.16545e-05
2.16732e-05
2.1687e-05
2.16961e-05
2.15881e-05
2.15921e-05
2.16034e-05
2.16195e-05
2.16367e-05
2.16524e-05
2.16655e-05
2.16758e-05
2.16833e-05
2.1688e-05
2.1635e-05
2.16374e-05
2.16427e-05
2.165e-05
2.16581e-05
2.16658e-05
2.16724e-05
2.16777e-05
2.16814e-05
2.16837e-05
2.16594e-05
2.16605e-05
2.16629e-05
2.16661e-05
2.16697e-05
2.16733e-05
2.16763e-05
2.16788e-05
2.16806e-05
2.16816e-05
2.16712e-05
2.16717e-05
2.16726e-05
2.1674e-05
2.16755e-05
2.1677e-05
2.16783e-05
2.16794e-05
2.16802e-05
2.16806e-05
2.16765e-05
2.16766e-05
2.1677e-05
2.16775e-05
2.16781e-05
2.16787e-05
2.16792e-05
2.16797e-05
2.168e-05
2.16801e-05
2.16786e-05
2.16787e-05
2.16788e-05
2.1679e-05
2.16792e-05
2.16794e-05
2.16796e-05
2.16798e-05
2.16799e-05
2.16799e-05
2.16794e-05
2.16794e-05
2.16795e-05
2.16795e-05
2.16796e-05
2.16797e-05
2.16797e-05
2.16798e-05
2.16798e-05
2.16798e-05
2.16797e-05
2.16797e-05
2.16797e-05
2.16797e-05
2.16797e-05
2.16797e-05
2.16798e-05
2.16798e-05
2.16798e-05
2.16798e-05
2.16798e-05
2.16798e-05
2.16798e-05
2.16798e-05
2.16798e-05
2.16798e-05
2.16798e-05
2.16798e-05
2.16798e-05
2.16798e-05
2.16798e-05
2.16798e-05
2.16798e-05
2.16798e-05
2.16798e-05
2.16798e-05
2.16798e-05
2.16798e-05
2.16798e-05
2.16798e-05
2.16798e-05
2.16798e-05
2.16798e-05
2.16798e-05
2.16798e-05
2.16798e-05
2.16798e-05
2.16798e-05
2.16798e-05
2.16798e-05
2.16798e-05
2.16798e-05
2.16798e-05
2.16798e-05
2.16798e-05
2.16798e-05
2.16798e-05
2.16798e-05
2.16798e-05
2.16798e-05
2.16798e-05
2.16798e-05
2.16798e-05
2.16798e-05
2.16798e-05
2.16798e-05
2.16798e-05
2.16798e-05
2.16798e-05
2.16798e-05
2.16798e-05
2.16798e-05
2.16798e-05
2.16798e-05
2.16798e-05
2.16798e-05
2.16798e-05
2.16798e-05
2.16798e-05
2.16798e-05
2.16798e-05
2.16798e-05
2.16798e-05
2.16798e-05
2.16798e-05
2.16798e-05
2.16798e-05
2.16798e-05
2.16798e-05
2.16798e-05
2.16798e-05
2.16798e-05
2.16798e-05
2.16798e-05
2.16798e-05
2.16798e-05
2.16798e-05
2.16798e-05
2.16798e-05
2.16798e-05
2.16798e-05
2.16798e-05
2.16798e-05
2.16798e-05
2.16798e-05
2.16798e-05
2.16798e-05
2.16798e-05
2.16798e-05
2.16798e-05
2.16798e-05
2.16798e-05
2.16798e-05
2.16798e-05
2.16798e-05
2.16798e-05
2.16798e-05
2.16798e-05
2.16798e-05
2.16798e-05
2.17401e-05
2.175e-05
2.17607e-05
2.17703e-05
2.1777e-05
2.17801e-05
2.17796e-05
2.17747e-05
2.17673e-05
2.1759e-05
2.17212e-05
2.17309e-05
2.17398e-05
2.17443e-05
2.17423e-05
2.1734e-05
2.1721e-05
2.17053e-05
2.16885e-05
2.16712e-05
2.17136e-05
2.17202e-05
2.17244e-05
2.1723e-05
2.17151e-05
2.17023e-05
2.16868e-05
2.16702e-05
2.16535e-05
2.1637e-05
2.17132e-05
2.17178e-05
2.17182e-05
2.17131e-05
2.17034e-05
2.16913e-05
2.16788e-05
2.16675e-05
2.16579e-05
2.16507e-05
2.17208e-05
2.17262e-05
2.17235e-05
2.17151e-05
2.17038e-05
2.16926e-05
2.16834e-05
2.16772e-05
2.1675e-05
2.16782e-05
2.17388e-05
2.17503e-05
2.17453e-05
2.17315e-05
2.17155e-05
2.17013e-05
2.16907e-05
2.1684e-05
2.16814e-05
2.16837e-05
2.17706e-05
2.17996e-05
2.17929e-05
2.17694e-05
2.17425e-05
2.17184e-05
2.16985e-05
2.16815e-05
2.1666e-05
2.1652e-05
2.18218e-05
2.18887e-05
2.18817e-05
2.18421e-05
2.17954e-05
2.1751e-05
2.17083e-05
2.16631e-05
2.16129e-05
2.1565e-05
2.19017e-05
2.20403e-05
2.20326e-05
2.1969e-05
2.18922e-05
2.18134e-05
2.17251e-05
2.16126e-05
2.147e-05
2.1337e-05
2.19856e-05
2.2288e-05
2.23077e-05
2.22399e-05
2.21491e-05
2.20444e-05
2.19018e-05
2.16686e-05
2.1261e-05
2.05502e-05
2.17187e-05
2.17108e-05
2.17049e-05
2.17027e-05
2.1704e-05
2.17076e-05
2.17102e-05
2.17031e-05
2.1662e-05
2.15179e-05
2.16996e-05
2.16977e-05
2.16946e-05
2.1692e-05
2.169e-05
2.16874e-05
2.16817e-05
2.16682e-05
2.16408e-05
2.16004e-05
2.16898e-05
2.16892e-05
2.16873e-05
2.16849e-05
2.1682e-05
2.1678e-05
2.16715e-05
2.16613e-05
2.16472e-05
2.16336e-05
2.16846e-05
2.16842e-05
2.1683e-05
2.16811e-05
2.16786e-05
2.16751e-05
2.16702e-05
2.16639e-05
2.16568e-05
2.16515e-05
2.1682e-05
2.16817e-05
2.16808e-05
2.16795e-05
2.16777e-05
2.16753e-05
2.16722e-05
2.16685e-05
2.1665e-05
2.16626e-05
2.16807e-05
2.16805e-05
2.168e-05
2.16791e-05
2.1678e-05
2.16765e-05
2.16747e-05
2.16727e-05
2.16709e-05
2.16698e-05
2.16801e-05
2.168e-05
2.16797e-05
2.16792e-05
2.16785e-05
2.16777e-05
2.16767e-05
2.16757e-05
2.16748e-05
2.16743e-05
2.16799e-05
2.16798e-05
2.16796e-05
2.16794e-05
2.1679e-05
2.16786e-05
2.16781e-05
2.16776e-05
2.16771e-05
2.16769e-05
2.16798e-05
2.16798e-05
2.16797e-05
2.16795e-05
2.16793e-05
2.16791e-05
2.16789e-05
2.16786e-05
2.16784e-05
2.16783e-05
2.16798e-05
2.16797e-05
2.16797e-05
2.16796e-05
2.16795e-05
2.16794e-05
2.16793e-05
2.16791e-05
2.1679e-05
2.1679e-05
2.16798e-05
2.16798e-05
2.16797e-05
2.16797e-05
2.16797e-05
2.16797e-05
2.16797e-05
2.16797e-05
2.16797e-05
2.16797e-05
2.16798e-05
2.16798e-05
2.16798e-05
2.16798e-05
2.16798e-05
2.16798e-05
2.16798e-05
2.16797e-05
2.16797e-05
2.16797e-05
2.16798e-05
2.16798e-05
2.16798e-05
2.16798e-05
2.16798e-05
2.16798e-05
2.16798e-05
2.16798e-05
2.16797e-05
2.16797e-05
2.16798e-05
2.16798e-05
2.16798e-05
2.16798e-05
2.16798e-05
2.16798e-05
2.16798e-05
2.16798e-05
2.16797e-05
2.16797e-05
2.16798e-05
2.16798e-05
2.16798e-05
2.16798e-05
2.16798e-05
2.16798e-05
2.16798e-05
2.16798e-05
2.16797e-05
2.16797e-05
2.16798e-05
2.16798e-05
2.16798e-05
2.16798e-05
2.16798e-05
2.16798e-05
2.16798e-05
2.16798e-05
2.16797e-05
2.16797e-05
2.16798e-05
2.16798e-05
2.16798e-05
2.16798e-05
2.16798e-05
2.16798e-05
2.16798e-05
2.16798e-05
2.16797e-05
2.16797e-05
2.16798e-05
2.16798e-05
2.16798e-05
2.16798e-05
2.16798e-05
2.16798e-05
2.16798e-05
2.16798e-05
2.16797e-05
2.16797e-05
2.16798e-05
2.16798e-05
2.16798e-05
2.16798e-05
2.16798e-05
2.16798e-05
2.16798e-05
2.16798e-05
2.16797e-05
2.16797e-05
2.16798e-05
2.16798e-05
2.16798e-05
2.16798e-05
2.16798e-05
2.16798e-05
2.16798e-05
2.16797e-05
2.16797e-05
2.16797e-05
)
;

boundaryField
{
    defaultFaces
    {
        type            empty;
    }
}


// ************************************************************************* //
