/*--------------------------------*- C++ -*----------------------------------*\
  =========                 |
  \\      /  F ield         | OpenFOAM: The Open Source CFD Toolbox
   \\    /   O peration     | Website:  https://openfoam.org
    \\  /    A nd           | Version:  11
     \\/     M anipulation  |
\*---------------------------------------------------------------------------*/
FoamFile
{
    format      ascii;
    class       volScalarField;
    location    "8.5";
    object      k;
}
// * * * * * * * * * * * * * * * * * * * * * * * * * * * * * * * * * * * * * //

dimensions      [0 2 -2 0 0 0 0];

internalField   nonuniform List<scalar> 
700
(
0.000180646
0.000180646
0.000180646
0.000180646
0.000180646
0.000180646
0.000180646
0.000180646
0.000180646
0.000180646
0.000180646
0.000180646
0.000180646
0.000180646
0.000180646
0.000180646
0.000180646
0.000180646
0.000180646
0.000180646
0.000180646
0.000180646
0.000180646
0.000180646
0.000180646
0.000180646
0.000180646
0.000180646
0.000180646
0.000180646
0.000180646
0.000180646
0.000180646
0.000180646
0.000180646
0.000180646
0.000180646
0.000180646
0.000180646
0.000180646
0.000180646
0.000180646
0.000180646
0.000180646
0.000180646
0.000180646
0.000180646
0.000180646
0.000180646
0.000180646
0.000180646
0.000180646
0.000180646
0.000180646
0.000180646
0.000180646
0.000180646
0.000180646
0.000180646
0.000180646
0.000180647
0.000180647
0.000180647
0.000180647
0.000180646
0.000180646
0.000180646
0.000180646
0.000180646
0.000180646
0.00018067
0.000180664
0.000180657
0.000180651
0.000180648
0.000180647
0.000180645
0.000180643
0.00018064
0.000180638
0.000181034
0.000180916
0.000180794
0.000180713
0.000180671
0.000180649
0.000180631
0.000180604
0.000180563
0.000180518
0.000185454
0.000183556
0.000182085
0.000181247
0.000180841
0.000180639
0.000180476
0.00018024
0.000179824
0.000179083
0.000202472
0.000192286
0.000185803
0.000182744
0.000181332
0.000180604
0.000180089
0.000179609
0.000179135
0.000178974
0.000197636
0.000193023
0.000187459
0.000184086
0.00018222
0.000181205
0.000180578
0.000180071
0.000179554
0.000179117
0.000190469
0.000190343
0.000187178
0.000184711
0.000183005
0.000181906
0.000181203
0.000180703
0.000180263
0.000179825
0.000181948
0.000185126
0.000184616
0.000183769
0.000182908
0.000182176
0.00018161
0.000181181
0.000180829
0.000180495
0.000173332
0.000178437
0.000180176
0.000181048
0.00018139
0.000181435
0.000181336
0.000181181
0.000181009
0.000180826
0.00016606
0.000171806
0.00017504
0.000177249
0.000178706
0.000179625
0.000180174
0.000180481
0.000180632
0.000180686
0.00016148
0.000167022
0.000170954
0.000173894
0.000176049
0.000177595
0.000178678
0.000179417
0.000179906
0.00018022
0.000160529
0.00016554
0.000169518
0.000172583
0.000174912
0.000176653
0.00017793
0.00017885
0.000179498
0.000179944
0.000163591
0.000167923
0.00017134
0.00017395
0.000175924
0.000177399
0.000178484
0.000179271
0.000179835
0.000180243
0.000170932
0.000173533
0.00017546
0.00017698
0.000178151
0.000179035
0.000179694
0.000180199
0.000180637
0.000181129
0.000177689
0.000177514
0.00017803
0.000178688
0.000179291
0.000179783
0.000180163
0.00018045
0.000180671
0.000180846
0.000178915
0.000178951
0.000179178
0.000179498
0.000179824
0.00018011
0.00018034
0.000180517
0.000180647
0.000180735
0.000179702
0.000179745
0.000179857
0.000180015
0.000180183
0.000180339
0.000180468
0.000180569
0.000180643
0.00018069
0.000180162
0.000180188
0.000180244
0.00018032
0.000180403
0.000180483
0.000180551
0.000180605
0.000180644
0.000180669
0.000180413
0.000180427
0.000180453
0.000180488
0.000180528
0.000180566
0.0001806
0.000180627
0.000180646
0.000180658
0.000180542
0.000180548
0.00018056
0.000180575
0.000180593
0.00018061
0.000180626
0.000180638
0.000180647
0.000180653
0.000180603
0.000180606
0.000180611
0.000180617
0.000180625
0.000180632
0.000180639
0.000180644
0.000180648
0.00018065
0.000180631
0.000180632
0.000180633
0.000180636
0.000180639
0.000180642
0.000180644
0.000180646
0.000180648
0.000180649
0.000180642
0.000180642
0.000180642
0.000180643
0.000180644
0.000180645
0.000180646
0.000180647
0.000180648
0.000180648
0.000180645
0.000180645
0.000180645
0.000180646
0.000180646
0.000180646
0.000180647
0.000180647
0.000180647
0.000180647
0.000180647
0.000180647
0.000180647
0.000180647
0.000180647
0.000180647
0.000180647
0.000180647
0.000180647
0.000180647
0.000180647
0.000180647
0.000180647
0.000180647
0.000180647
0.000180647
0.000180647
0.000180647
0.000180647
0.000180647
0.000180647
0.000180647
0.000180647
0.000180647
0.000180647
0.000180647
0.000180647
0.000180647
0.000180647
0.000180647
0.000180647
0.000180647
0.000180647
0.000180647
0.000180647
0.000180647
0.000180647
0.000180647
0.000180647
0.000180647
0.000180647
0.000180647
0.000180647
0.000180647
0.000180647
0.000180647
0.000180647
0.000180647
0.000180647
0.000180647
0.000180647
0.000180647
0.000180647
0.000180647
0.000180647
0.000180647
0.000180647
0.000180647
0.000180647
0.000180647
0.000180647
0.000180647
0.000180647
0.000180647
0.000180647
0.000180647
0.000180647
0.000180647
0.000180647
0.000180647
0.000180647
0.000180647
0.000180647
0.000180647
0.000180647
0.000180647
0.000180647
0.000180647
0.000180647
0.000180647
0.000180647
0.000180647
0.000180647
0.000180647
0.000180647
0.000180647
0.000180647
0.000180647
0.000180647
0.000180647
0.000180647
0.000180647
0.000180647
0.000180647
0.000180647
0.000180647
0.000180647
0.000180647
0.000180647
0.000180647
0.000181206
0.000181322
0.000181448
0.000181561
0.000181637
0.000181669
0.000181658
0.000181612
0.000181525
0.000181421
0.000180972
0.000181064
0.000181152
0.000181198
0.000181179
0.000181098
0.00018097
0.000180812
0.000180634
0.000180454
0.000180918
0.000180963
0.000180988
0.000180968
0.000180895
0.000180779
0.000180637
0.000180483
0.000180325
0.000180171
0.000180944
0.000180972
0.000180963
0.000180911
0.000180824
0.000180717
0.000180605
0.000180499
0.000180406
0.000180336
0.000181037
0.000181079
0.000181051
0.000180973
0.00018087
0.000180767
0.000180679
0.000180618
0.000180594
0.000180625
0.000181214
0.00018132
0.000181278
0.000181155
0.000181006
0.000180871
0.000180765
0.000180694
0.000180665
0.00018069
0.000181506
0.000181772
0.000181725
0.000181519
0.000181272
0.000181041
0.000180842
0.000180668
0.000180511
0.000180379
0.000181956
0.000182557
0.000182517
0.000182179
0.000181759
0.000181341
0.000180926
0.000180485
0.000180008
0.000179575
0.000182641
0.000183856
0.000183824
0.000183288
0.000182609
0.000181884
0.000181058
0.000180019
0.000178747
0.00017761
0.000183351
0.000185943
0.000186147
0.000185578
0.000184774
0.000183817
0.00018251
0.000180439
0.000176952
0.000171033
0.000180941
0.000180877
0.000180849
0.000180854
0.000180885
0.000180932
0.000180968
0.000180921
0.000180588
0.000179392
0.00018078
0.000180777
0.000180767
0.000180759
0.000180754
0.000180742
0.000180703
0.000180597
0.000180374
0.000180039
0.000180714
0.000180717
0.000180709
0.000180696
0.000180677
0.000180647
0.000180597
0.000180515
0.000180399
0.000180287
0.000180681
0.000180681
0.000180674
0.000180661
0.000180641
0.000180613
0.000180573
0.000180521
0.000180462
0.000180417
0.000180663
0.000180662
0.000180656
0.000180646
0.00018063
0.000180609
0.000180582
0.000180551
0.000180521
0.0001805
0.000180655
0.000180653
0.000180649
0.000180641
0.000180631
0.000180617
0.000180601
0.000180583
0.000180567
0.000180557
0.00018065
0.000180649
0.000180646
0.000180641
0.000180635
0.000180627
0.000180618
0.000180608
0.000180599
0.000180594
0.000180649
0.000180648
0.000180646
0.000180643
0.00018064
0.000180635
0.00018063
0.000180625
0.00018062
0.000180618
0.000180648
0.000180647
0.000180646
0.000180645
0.000180643
0.00018064
0.000180638
0.000180635
0.000180632
0.000180631
0.000180647
0.000180647
0.000180646
0.000180645
0.000180644
0.000180643
0.000180641
0.00018064
0.000180638
0.000180638
0.000180647
0.000180647
0.000180647
0.000180647
0.000180647
0.000180646
0.000180646
0.000180646
0.000180646
0.000180646
0.000180647
0.000180647
0.000180647
0.000180647
0.000180647
0.000180647
0.000180647
0.000180647
0.000180646
0.000180646
0.000180647
0.000180647
0.000180647
0.000180647
0.000180647
0.000180647
0.000180647
0.000180647
0.000180646
0.000180646
0.000180647
0.000180647
0.000180647
0.000180647
0.000180647
0.000180647
0.000180647
0.000180647
0.000180646
0.000180646
0.000180647
0.000180647
0.000180647
0.000180647
0.000180647
0.000180647
0.000180647
0.000180647
0.000180646
0.000180646
0.000180647
0.000180647
0.000180647
0.000180647
0.000180647
0.000180647
0.000180647
0.000180647
0.000180646
0.000180646
0.000180647
0.000180647
0.000180647
0.000180647
0.000180647
0.000180647
0.000180647
0.000180647
0.000180646
0.000180646
0.000180647
0.000180647
0.000180647
0.000180647
0.000180647
0.000180647
0.000180647
0.000180647
0.000180646
0.000180646
0.000180647
0.000180647
0.000180647
0.000180647
0.000180647
0.000180647
0.000180647
0.000180647
0.000180646
0.000180646
0.000180647
0.000180647
0.000180647
0.000180647
0.000180647
0.000180647
0.000180647
0.000180647
0.000180646
0.000180646
)
;

boundaryField
{
    defaultFaces
    {
        type            empty;
    }
}


// ************************************************************************* //
