/*--------------------------------*- C++ -*----------------------------------*\
  =========                 |
  \\      /  F ield         | OpenFOAM: The Open Source CFD Toolbox
   \\    /   O peration     | Website:  https://openfoam.org
    \\  /    A nd           | Version:  11
     \\/     M anipulation  |
\*---------------------------------------------------------------------------*/
FoamFile
{
    format      ascii;
    class       volScalarField;
    location    "8.5";
    object      nut;
}
// * * * * * * * * * * * * * * * * * * * * * * * * * * * * * * * * * * * * * //

dimensions      [0 2 -1 0 0 0 0];

internalField   nonuniform List<scalar> 
700
(
0.000135471
0.000135471
0.000135471
0.000135471
0.000135471
0.000135471
0.000135471
0.000135471
0.000135471
0.000135471
0.000135471
0.000135471
0.000135471
0.000135471
0.000135471
0.000135471
0.000135471
0.000135471
0.000135471
0.000135471
0.000135471
0.000135471
0.000135471
0.000135471
0.000135471
0.000135471
0.000135471
0.000135471
0.000135471
0.000135471
0.000135471
0.000135471
0.000135471
0.000135471
0.000135471
0.000135471
0.000135471
0.000135471
0.000135471
0.000135471
0.000135471
0.000135471
0.000135471
0.000135471
0.000135471
0.000135471
0.000135471
0.000135471
0.000135471
0.000135471
0.000135471
0.000135471
0.000135471
0.000135471
0.000135471
0.000135471
0.000135471
0.000135471
0.000135471
0.000135471
0.000135472
0.000135472
0.000135472
0.000135471
0.000135471
0.000135471
0.000135471
0.000135471
0.000135471
0.00013547
0.000135493
0.000135488
0.000135481
0.000135476
0.000135473
0.000135471
0.00013547
0.000135468
0.000135466
0.000135463
0.000135812
0.000135713
0.000135607
0.000135534
0.000135494
0.000135473
0.000135456
0.000135432
0.000135397
0.00013536
0.000139434
0.000137937
0.000136733
0.000136016
0.000135652
0.000135463
0.000135314
0.000135111
0.000134775
0.000134203
0.000152527
0.000144767
0.000139731
0.000137271
0.000136085
0.000135452
0.000135008
0.000134612
0.000134231
0.000134095
0.000148817
0.000145319
0.000141033
0.000138363
0.000136835
0.000135971
0.000135426
0.000134992
0.000134568
0.000134213
0.000143178
0.000143138
0.00014075
0.000138838
0.000137475
0.000136566
0.000135964
0.000135528
0.00013515
0.000134784
0.000136454
0.00013894
0.000138621
0.00013801
0.000137354
0.000136774
0.000136308
0.000135941
0.000135635
0.000135346
0.000129699
0.000133621
0.000135017
0.000135745
0.000136054
0.000136117
0.000136052
0.000135931
0.000135788
0.000135631
0.000124049
0.000128415
0.000130917
0.000132656
0.000133826
0.000134581
0.000135046
0.000135312
0.000135448
0.0001355
0.000120523
0.000124701
0.000127699
0.00012997
0.000131661
0.000132897
0.000133779
0.000134394
0.00013481
0.000135084
0.000119812
0.000123572
0.000126584
0.000128934
0.000130746
0.000132122
0.000133151
0.000133906
0.00013445
0.000134832
0.000122181
0.000125431
0.000128019
0.00013002
0.000131558
0.000132726
0.0001336
0.000134243
0.000134711
0.000135052
0.000127802
0.000129763
0.000131237
0.000132419
0.000133346
0.000134055
0.000134589
0.000134999
0.000135366
0.000135824
0.000132971
0.000132854
0.000133268
0.000133795
0.000134286
0.00013469
0.000135003
0.000135238
0.00013542
0.000135573
0.00013397
0.000134008
0.000134197
0.000134463
0.000134735
0.000134976
0.00013517
0.000135318
0.000135426
0.000135502
0.000134628
0.000134668
0.000134765
0.0001349
0.000135046
0.00013518
0.000135293
0.00013538
0.000135444
0.000135486
0.000135025
0.000135049
0.000135099
0.000135167
0.000135242
0.000135313
0.000135374
0.000135422
0.000135457
0.00013548
0.000135249
0.000135262
0.000135286
0.000135319
0.000135356
0.000135391
0.000135423
0.000135447
0.000135465
0.000135477
0.000135368
0.000135374
0.000135385
0.000135401
0.000135418
0.000135434
0.000135449
0.000135461
0.00013547
0.000135475
0.000135427
0.00013543
0.000135435
0.000135441
0.000135449
0.000135456
0.000135463
0.000135468
0.000135472
0.000135474
0.000135455
0.000135456
0.000135458
0.00013546
0.000135463
0.000135466
0.000135469
0.000135471
0.000135473
0.000135473
0.000135466
0.000135466
0.000135467
0.000135468
0.000135469
0.00013547
0.000135471
0.000135472
0.000135473
0.000135473
0.00013547
0.00013547
0.00013547
0.00013547
0.000135471
0.000135471
0.000135472
0.000135472
0.000135472
0.000135472
0.000135472
0.000135472
0.000135472
0.000135472
0.000135472
0.000135472
0.000135472
0.000135472
0.000135472
0.000135472
0.000135472
0.000135472
0.000135472
0.000135472
0.000135472
0.000135472
0.000135472
0.000135472
0.000135472
0.000135472
0.000135472
0.000135472
0.000135472
0.000135472
0.000135472
0.000135472
0.000135472
0.000135472
0.000135472
0.000135472
0.000135472
0.000135472
0.000135472
0.000135472
0.000135472
0.000135472
0.000135472
0.000135472
0.000135472
0.000135472
0.000135472
0.000135472
0.000135472
0.000135472
0.000135472
0.000135472
0.000135472
0.000135472
0.000135472
0.000135472
0.000135472
0.000135472
0.000135472
0.000135472
0.000135472
0.000135472
0.000135472
0.000135472
0.000135472
0.000135472
0.000135472
0.000135472
0.000135472
0.000135472
0.000135472
0.000135472
0.000135472
0.000135472
0.000135472
0.000135472
0.000135472
0.000135472
0.000135472
0.000135472
0.000135472
0.000135472
0.000135472
0.000135472
0.000135472
0.000135472
0.000135472
0.000135472
0.000135472
0.000135472
0.000135472
0.000135472
0.000135472
0.000135472
0.000135472
0.000135472
0.000135472
0.000135472
0.000135472
0.000135472
0.000135472
0.000135472
0.000135472
0.000135472
0.000135472
0.000135472
0.000135933
0.000136046
0.000136169
0.000136277
0.000136349
0.000136378
0.000136365
0.000136326
0.000136242
0.000136138
0.0001357
0.000135777
0.000135853
0.000135894
0.000135879
0.000135809
0.000135699
0.000135559
0.000135397
0.000135237
0.000135668
0.000135693
0.000135705
0.000135684
0.000135622
0.000135528
0.000135413
0.000135285
0.000135153
0.000135026
0.000135709
0.000135721
0.000135705
0.00013566
0.00013559
0.000135505
0.000135414
0.000135327
0.000135248
0.000135187
0.000135801
0.00013583
0.000135804
0.000135739
0.000135656
0.000135571
0.000135497
0.000135444
0.000135422
0.000135448
0.000135954
0.000136041
0.000136009
0.00013591
0.000135788
0.000135673
0.00013558
0.000135516
0.000135489
0.000135511
0.000136192
0.000136411
0.000136382
0.00013622
0.000136018
0.000135822
0.000135647
0.000135492
0.000135355
0.000135244
0.000136548
0.000137031
0.000137016
0.000136756
0.000136417
0.000136067
0.000135712
0.000135333
0.000134932
0.000134581
0.000137076
0.000138033
0.000138032
0.000137626
0.000137087
0.000136492
0.000135804
0.000134949
0.000133933
0.000133059
0.000137616
0.000139614
0.000139798
0.000139368
0.00013873
0.000137948
0.000136879
0.000135229
0.000132547
0.000128111
0.00013567
0.000135622
0.000135618
0.00013564
0.000135678
0.000135725
0.000135764
0.000135737
0.000135494
0.000134601
0.000135547
0.000135555
0.000135559
0.000135564
0.000135569
0.000135567
0.000135544
0.000135469
0.000135305
0.000135056
0.000135509
0.000135518
0.000135518
0.000135513
0.000135503
0.000135484
0.000135449
0.000135389
0.000135304
0.00013522
0.000135492
0.000135495
0.000135492
0.000135484
0.000135471
0.00013545
0.000135421
0.000135382
0.000135337
0.000135303
0.000135483
0.000135483
0.000135479
0.000135471
0.000135459
0.000135443
0.000135423
0.000135399
0.000135375
0.000135359
0.000135477
0.000135477
0.000135473
0.000135467
0.000135459
0.000135448
0.000135434
0.00013542
0.000135407
0.000135399
0.000135475
0.000135474
0.000135471
0.000135467
0.000135462
0.000135455
0.000135447
0.000135439
0.000135432
0.000135427
0.000135473
0.000135473
0.000135471
0.000135469
0.000135465
0.000135461
0.000135457
0.000135453
0.000135449
0.000135446
0.000135473
0.000135472
0.000135471
0.00013547
0.000135468
0.000135466
0.000135463
0.000135461
0.000135459
0.000135457
0.000135472
0.000135472
0.000135471
0.00013547
0.000135469
0.000135468
0.000135467
0.000135465
0.000135464
0.000135463
0.000135472
0.000135472
0.000135472
0.000135471
0.000135471
0.000135471
0.000135471
0.000135471
0.000135471
0.00013547
0.000135472
0.000135472
0.000135472
0.000135472
0.000135472
0.000135472
0.000135472
0.000135471
0.000135471
0.000135471
0.000135472
0.000135472
0.000135472
0.000135472
0.000135472
0.000135472
0.000135472
0.000135471
0.000135471
0.000135471
0.000135472
0.000135472
0.000135472
0.000135472
0.000135472
0.000135472
0.000135472
0.000135471
0.000135471
0.000135471
0.000135472
0.000135472
0.000135472
0.000135472
0.000135472
0.000135472
0.000135472
0.000135471
0.000135471
0.000135471
0.000135472
0.000135472
0.000135472
0.000135472
0.000135472
0.000135472
0.000135472
0.000135471
0.000135471
0.000135471
0.000135472
0.000135472
0.000135472
0.000135472
0.000135472
0.000135472
0.000135472
0.000135471
0.000135471
0.000135471
0.000135472
0.000135472
0.000135472
0.000135472
0.000135472
0.000135472
0.000135472
0.000135471
0.000135471
0.000135471
0.000135472
0.000135472
0.000135472
0.000135472
0.000135472
0.000135472
0.000135472
0.000135471
0.000135471
0.000135471
0.000135472
0.000135472
0.000135472
0.000135472
0.000135472
0.000135472
0.000135472
0.000135471
0.000135471
0.000135471
)
;

boundaryField
{
    defaultFaces
    {
        type            empty;
    }
}


// ************************************************************************* //
