/*--------------------------------*- C++ -*----------------------------------*\
  =========                 |
  \\      /  F ield         | OpenFOAM: The Open Source CFD Toolbox
   \\    /   O peration     | Website:  https://openfoam.org
    \\  /    A nd           | Version:  11
     \\/     M anipulation  |
\*---------------------------------------------------------------------------*/
FoamFile
{
    format      ascii;
    class       volScalarField;
    location    "1.1";
    object      gradTy;
}
// * * * * * * * * * * * * * * * * * * * * * * * * * * * * * * * * * * * * * //

dimensions      [0 -1 0 1 0 0 0];

internalField   nonuniform List<scalar> 
5712
(
12824.8
7400.85
20663.9
13625
22622.6
16814.8
35213
44096.5
46442.3
57289.3
30177.1
26349.6
19142.1
15271.6
9656.9
6546.81
21129
21238.4
18371.7
21380.3
28512.8
25030.2
33322.9
26527.7
8934.17
6317.25
5063.04
3792.59
10564.2
8560.18
6502.8
5336.83
19969.7
20388.8
20051.4
16366.6
15200.4
12221.2
12181.1
13949.5
19574.2
19605
41682.3
43250
29076.5
30124
17185
14498.4
18383.7
13038.5
8557.43
8887.29
7296.82
10958
3838.87
4839.75
9947.71
14513.4
5994.73
7222.73
10820.7
19446.6
7584.56
12917.5
2855.81
7611.21
2382.99
5654.76
18528.9
23050
19486
23174.4
22492.5
22575.8
23272.1
22513
16848.2
23049.1
16996.2
22613
19362.2
23148.9
19453.7
23173
23688.2
22365.6
23728
22227.8
15682.8
23233.2
15210.8
23373.6
19886.2
24090.5
25102.5
36128.1
21104.8
28215.8
24913.2
39733.9
18843.2
21032.5
25177.3
34507.9
18664.8
19620.8
25460.6
34176.8
6670.71
8956.11
17209.9
30981.9
8099.66
9398.23
21769.9
34581.3
9809.43
9971
27048.7
37550
25800.3
26741
22722.2
22807.5
35028.4
26666.9
25908.4
23043.7
20603.5
40678.5
24421.9
24750
22814.9
23864.7
45553.2
2463.37
2992.53
5441.28
13218
3442.42
3996.58
7280.68
14359.9
4977.88
4243.97
9621.88
15853.9
25814.4
24495.9
23854.4
22453.7
21418.3
18636.7
16632.3
14252.1
12356.3
18014.7
23790.4
22159
24623.4
23443.6
22122.5
20123.7
19038.8
16743.9
13024.6
17798.2
24786.8
27651.2
24841.6
28530.7
23397.4
23859.2
22988.8
24279.9
23213.9
23492.8
22987
22729.8
24705.1
28731.9
24657.8
28781.7
22401.6
24710
22278.9
24725.4
23307.8
23440.1
23347.7
23465.3
20042.8
19005.4
13092.6
14790.1
19956.7
18576.4
12942.1
15061.5
20282.8
18903.2
13357
14754.4
20370.3
18706.4
13770
14730.5
1884.55
1159.75
747.014
1026.4
621.689
565.056
2664.39
1393.39
974.5
1962.13
1456.27
1166.75
2906.2
2094.42
1964.92
3387.24
2547.74
2175.75
22000.1
18412.3
16121.8
20716.3
17888.4
15916.2
15166.8
13082.2
11914.8
10805.7
8537.82
7531.39
5221.23
3456.1
2753.08
20222.2
17281.5
15141.4
21385.7
17958.6
15598.3
16338.3
12790.9
10854.2
10985.4
7911.63
6634.1
5510.24
3400.71
2550.06
28374.6
27386.6
31244.9
27654.9
32265.5
27693.6
39441.7
29505.4
21556.5
21410.8
21402.7
19512.4
24254.7
22380.6
23999.3
20147.5
23742.1
23299.8
21811.3
23037.2
28370.5
25821.9
29377.8
29983.5
32334.7
33626.8
24209.6
25271.9
21682.5
21126.9
26024.9
26812.6
16324.6
8765.54
15392.7
9700.99
16622.9
8842.97
15406
9641.32
16446.6
8876.13
15434.4
10054.1
15092.2
10521.2
15316.1
10414.2
21507.3
17999
21654.9
18141.5
24048
21412.7
24604.2
21397.8
20951.9
14840.8
21589.5
14510.2
22328.1
18154.7
22704
17978.4
25464.8
21346.6
25592.7
21123.8
20913
14957
20923.1
14874.2
13468.6
8885.62
11546.3
7517.31
12400.4
7933.58
11004.7
7016.77
13888
9447.05
11778.2
7750.2
13938.7
9764.49
11750.5
7798.28
2541.31
1320.16
4705.33
2665.07
2693.56
1588.47
4993.82
3122.59
3280.58
2354.01
5499.15
3981.37
12642.4
20056.2
9042.89
8646.66
6292.65
19391.7
13155
7546.12
7590.75
5176.87
20516.6
15807.4
12343.3
9496.02
6140.4
699.535
477.776
1639.84
1230.2
944.143
599.099
2158.8
1686.79
1591.04
1106.1
2986.74
2373.28
19269.5
17841
12654.7
11480.3
7984.28
7516.86
6665.69
5627.04
4375.35
3471.33
18332.6
15965.9
13812.2
11452.3
10481
8659.8
7865.25
6519.46
5329.75
4831.25
14437.4
10980.3
14684.8
10909.5
17858.3
14247.8
18021.6
14319.3
11933.7
9013.14
11467.2
8891.23
14788.9
10851
14721.7
10855.8
18059.7
14738.6
17929.7
14740.1
12217.3
8957.95
12201.4
9074.29
9114.91
7107.22
6250.18
5995.64
8710.59
6848.07
5959.4
5616.31
9532.97
7289.83
6420.12
6335.47
9743.74
7288.8
6660.39
6421.2
1119.49
943.239
758.404
4757.68
2457.89
1953.8
1099.9
1041.39
897.218
5258.26
2953.09
2430.87
1563.54
1670.59
1654.8
5978.05
3776.08
3253.69
15656.2
13561.9
12248.2
10159.4
9079.18
8470.2
7026.74
6387.27
6093.4
5657.21
5070.74
4734.63
7004.51
4757.75
4136.29
13574.6
11459.6
10154.6
9524.98
8061.04
7266.38
7449.28
6285.41
5682.73
6706.51
5475.45
4814.71
8675.75
5409.89
4628.15
4699.9
2699.09
1616.31
1004.38
5262.55
2920.29
1701.87
1034.36
4728.01
2702.01
1621.67
1009.82
5373.71
2982.97
1746.72
1060.37
4730.01
2686.4
1652.84
1033.3
5489.23
3026.64
1816.72
1100.84
5891.57
3191.44
1818.67
1093.46
6042.18
3299.88
1851.72
1112.91
5027.4
2859.13
1733.2
1062.73
4223.2
2556.43
1609.76
1012.13
4453.07
2610.45
1636.25
1016.01
3921.69
2421.39
1551.76
980.814
5410.28
3044.28
1792.98
1088.37
4403.24
2653.28
1643.98
1034.13
5617.5
3166.47
1838.38
1115.83
4481.28
2720.89
1676.9
1056.57
3604.42
2338.52
1489.71
958.442
2495.28
1921.64
1336.51
898.537
3623.46
2334.29
1492.63
959.298
2598.1
1950.35
1346.46
904.142
3722.74
2344.75
1516.51
975.661
2895.07
2037.64
1381.53
925.333
3709.97
2308.1
1506.52
1000.24
3158.7
2104.17
1431.77
935.454
3520.15
2262.66
1486.24
967.27
1480.2
1596.79
1089.7
330.673
461.078
1424.13
997.075
332.843
1671.49
1661.57
1117.01
348.054
673.364
1494.04
1019.89
340.284
2041.09
1778.46
1154.15
348.05
1049.16
1614.91
1051.73
344.751
2511.2
1923.01
1218.45
377.506
1479.27
1755.11
1100.75
360.314
2857.79
2062.61
1299.4
433.429
1669.01
1871.67
1147.51
374.29
3090.63
2225.64
1334.26
418.715
1590.4
2017.76
1236.27
399.553
2998.71
2154.87
1309.95
417.523
1515.25
1951.55
1191.25
385.004
3134.81
2273.57
1342.9
394.425
1587.66
2070.47
1261.19
401.853
3198.03
2319.24
1371.69
400.689
1678.54
2119.25
1290.38
410.228
680.181
426.335
246.455
124.991
37.9322
676.021
425.921
246.74
125.198
37.9967
689.309
430.727
248.265
125.715
38.1262
689.423
431.497
249.109
126.169
38.2596
709.117
436.807
250.556
126.614
38.3666
707.356
437.795
251.802
127.284
38.5639
714.467
444.559
255.238
128.8
38.9864
729.935
453.731
259.89
130.878
39.5703
728.46
443.935
253.748
127.964
38.7376
771.922
451.956
255.886
128.67
38.9154
731.604
441.959
252.245
127.235
38.5293
770.693
448.934
254.227
127.927
38.7071
733.918
449.797
256.795
129.321
39.1172
786.006
457.611
258.626
129.881
39.2546
751.24
458.77
261.161
131.251
39.6583
804.283
465.628
262.385
131.536
39.7187
694.86
428.068
246.36
124.82
37.8747
724.402
430.23
246.373
124.722
37.8401
703.761
431.579
247.74
125.359
38.0176
731.817
432.948
247.445
125.14
37.9511
722.404
437.404
249.875
126.188
38.2383
748.139
437.901
249.326
125.88
38.1482
749.638
443.761
251.986
126.99
38.4506
767.508
443.159
251.414
126.721
38.3745
774.596
446.995
253.154
127.452
38.5742
13189.1
20563.5
13611.7
20675.1
14169.1
20717.8
14352.4
20514.8
13378.7
19242.8
11884
13483
12066.1
14452.2
11862.2
13210.7
12037.7
13309.1
11842.8
2041.28
440.033
99.6512
17.789
13214.6
3782.86
925.501
211.864
37.7972
11835.4
2006.87
430.133
97.1437
17.3062
13175.7
3732.56
911.047
207.782
36.7795
11714
1964.1
418.422
94.2644
16.7779
13011.9
3658.42
890.125
202.609
35.8515
11325.7
1862.59
394.239
88.7815
15.8147
12572.5
3511.7
853.203
194.239
34.3802
10458.3
1677.86
355.127
80.3883
14.3744
11638.6
3262.61
796.666
182.18
32.3329
8900.13
1486.77
325.815
75.1881
13.5812
9122.59
2697.29
678.71
158.332
28.4471
9389.67
1542.99
333.898
76.4842
13.757
9893.81
2917.66
726.661
167.912
29.9702
8684.39
1464.75
322.516
74.6383
13.5021
8817.02
2589.4
652.322
152.774
27.548
8613.37
1446.68
318.251
73.6874
13.3214
8774.14
2556.93
642.404
150.821
27.1609
36095.6
52043
50668.7
34859.7
20070.7
21208
29684.5
31219
23560.3
26626.7
37858.7
52210.4
48049
64179.3
31182.4
35781.2
24263.5
26075.7
13088.1
14411.7
4677.62
2929.34
490.26
332.576
376.818
316.467
424.809
4328.77
4001.64
2308.27
3112.67
2804.06
1134.04
1686.01
1419.48
873.765
1027.33
799.489
3971.34
1885.91
1013.13
879.359
1228.29
1035.54
752.813
671.568
580.549
492.085
751.261
666.366
4277.73
2405.84
2810.48
1621.98
1245.74
1916.47
760.44
525.553
857.614
9181.97
8635.63
8175.29
8491.74
12939.2
6255.92
6704.43
6823.98
7173.62
8001.34
1265.46
1753.3
2088.26
2296.13
2397.69
868.839
1225.56
1482.03
1644.95
1723.98
983.848
1385.81
1672.14
1851.49
1937.22
828.829
1173.31
1422.76
1581.41
1658.01
1104.14
1544.87
1853.78
2045.92
2138.1
8796.83
8509.15
7828.34
7709.1
11284.1
8122.35
7714.79
6966.67
6679.02
7328.66
5128.53
5721.99
5794.18
5854.58
6112.24
6476.58
6394.22
5839.64
5487.22
5449.35
5837.17
5831.07
5335.98
4945.15
4800.25
2750.44
3472.27
3821.8
3990.16
4077.24
3885.22
4554.72
4740.34
4793.15
4857.24
3324.43
3984.24
4196.98
4239.81
4251.45
2175.36
2851.06
3229.24
3425.04
3513.71
2508.94
3196.05
3533.76
3684.83
3747.62
2006.57
2659.66
3037.37
3234.49
3320.31
8222.07
8210.85
7768.16
7850.96
11605.4
4332.19
5088.51
5372.03
5581.32
5890.02
2496.6
3227.54
3625.99
3843.62
3961.06
2193.81
2890.03
3301.05
3539.34
3666.04
2968.49
3741.44
4141.6
4381.48
4554.04
2555.38
3317.58
3756.29
4023.11
4183.55
1901.2
2552.65
2966.98
3221.16
3355.07
1710.56
2322.26
2716.99
2952.99
3069
1491.17
2047.41
2412.6
2626.29
2724.99
1272.78
1766.89
2103.89
2308.09
2404.39
1897.05
2540.04
2931.65
3151.6
3255.49
1696.71
2301.22
2687.54
2914.13
3023.1
8599.64
8344.24
7952.42
8214.96
12381.2
5303.7
5936.78
6184.19
6524.93
7146.69
6306.97
6944.28
6960.79
7234.84
8419.69
3821.16
4669.37
5101.21
5426.54
5743.03
3024.72
3843.84
4296.41
4591.26
4801.6
4408.76
5203.92
5535.76
5808.75
6186.74
1920.1
2575.76
2988.63
3237.79
3366.92
1353.88
1869.08
2217.01
2428.69
2530.36
2145.8
2840.08
3259.38
3508.71
3642.53
20464.7
13689.6
21001.4
15126.6
26922.9
39284.7
28288.7
39215.9
21471.6
22498.8
18535.6
21894.4
23973.5
22509.6
31121.4
25042.1
16067.5
15456.1
7870.92
6894.32
17427.8
16310.7
8995.81
7496.67
21703.6
23299.6
21969.2
19812.8
22726.4
14925.6
12141.3
13986.6
19744.1
19666
41577.3
43313.3
28545.8
30011.8
18101.5
14715.1
19470.6
13257.9
9501.8
9130.09
16692.5
18766.1
6949.33
7691.19
18222.8
21187.5
8606.35
9640
17135.1
24571.4
9902
15590.4
3409.54
8550.9
2498.74
5842.87
19729.7
22385.6
19695.4
22818.8
20994.9
21127.3
22312.1
21736.6
18398.6
23216.2
20945.5
22906.2
19362.6
22968.1
19436.5
23115.1
23223.9
21983.8
23597.7
22111.9
16228.9
23308.4
15326.9
23391.2
21206.9
25720.3
25637.1
36702.8
23225.5
30784.6
25842.5
40681.2
19483.1
21857.4
25441.2
34816.8
18840.7
19858.6
25534.5
34272.8
22995.1
24749.8
29433.2
44202.2
22936.4
23325
31397.8
44621.5
22295.4
21767
33578
43906.1
19898.8
20196.9
21976.4
24226.9
37923.1
19299.1
18498.3
23317.5
21927
43711.6
20136.5
21598.3
22129.3
24990.4
46832.7
12815.5
11484.7
12487.6
16683.6
14068.4
12638.4
12895.5
17054
15570.4
13195.6
13416.4
17291.3
18411.7
17220.4
17730.6
16804.1
21326.3
19386.3
18018.7
15899.5
13973.9
17927.8
19550.5
18825.2
21304.6
20985.7
21100.9
19491.9
19781.4
17354.8
13683.5
17201.3
23330.7
26030.4
24173.6
27706.2
21469.4
22090.1
22109.6
23434.5
22981.4
23114.5
22513.5
22095.9
24397.4
28357.8
24567.7
28674.8
22006
24314.8
22164.1
24612.6
23189.9
23262.2
23310.4
23414.5
20152.8
18962.4
13283.7
14821.7
20210.9
18577.8
13341.9
15078.4
20326.4
18878
13444.6
14778.5
20381
18698.4
13796.5
14738.5
10346.8
10528.7
4595.4
4175.19
11546.9
11101.2
5143.69
4872.96
11199
10314.3
5812.37
5549.41
16470.4
15599.2
16592.1
16355.9
17108.2
16228.7
13296.5
11593
6915.1
5562.05
18477.4
17263
20471.3
19175.3
16845.4
15147.3
12502.2
10366.3
6305.3
4522.99
23111.7
21641.3
29009.9
24876.6
26316.1
23069.5
36894.3
27229.2
20851.7
16756.3
23063.3
17822.5
20675.8
17060.9
23165.1
18113.1
21587.7
18740.5
19315.2
17623.8
21325.6
23050.5
28040.7
29590.7
31329.3
33355.6
22930.1
24845.5
20539.7
20804.3
24445.1
26285.2
13348.7
9666.2
13943.2
9939.35
13658
9600.78
14189.7
9822.89
13588.7
9477.67
14211.9
10073.3
14355.3
10439.9
15064
10377
17556.1
16716.9
19723.4
17349.4
20557.1
19447.7
22809.8
20328.1
19031.1
14481.5
17760.9
14143.1
21385.7
17735.1
22427.4
17851.2
24629.8
20818.7
25358
20966.6
19948
14733
20635.2
14803.5
12967.1
9153.56
11634.5
7802.31
12194.4
8785.53
11439.2
7674.03
13525.4
9510.07
11773.7
7871.23
13816
9771.38
11744.3
7835.54
12569.5
12293.3
8988.48
8208.25
12707.9
12427.8
8857.16
8146.52
12654
11976
8655.41
8081.73
15151.9
18334.1
15614.1
11374.5
8377.03
16889.7
15432.2
16754.1
11246.2
8048.73
18700.9
16077.9
13852.4
11361.7
7541.76
12180.9
12350.9
7903.45
8081.94
12140
12141.1
7863.78
8013.82
11425.8
11162
7607.95
7415.63
16412
15053.5
14381.9
13271.6
14398.1
14086.5
10931.8
10924.1
7440.47
7015.01
16631.8
14695.3
14449.3
12526.7
12540
11235.4
10348.7
9602.09
6934.23
6812.89
14221.7
11402.2
14401.2
11006.5
16724.3
13632.3
17354.7
13961.4
12028
9439.41
12007.9
9998.69
14602.3
10865.3
14661.9
10854.3
17726.4
14550.4
17830.5
14684.3
12195.1
9111.34
12182.6
9107.27
9482.13
7703.7
6638.14
6555.75
9657.36
8208.36
6776.23
6809.02
9656.92
7525.8
6588.82
6610.23
9774.43
7351.68
6713.66
6502.64
13714.8
13480.4
17092.2
14635.8
13350.9
13153.5
16431.5
14014.8
11858.1
12030.5
15143.5
13021.3
14088.1
13255.6
12351.9
11786.5
13581.1
13502.5
11685.1
11287.3
13900.6
11797.8
13115.5
12062.4
11203.8
10625.2
10704.1
10575
10695.8
10144.2
13317
10589.6
5865.54
3416.84
1998.72
1209.91
6077.64
3518.48
2047.22
1225.31
5782.68
3367.04
1971.22
1196.3
6043.77
3495.58
2045.31
1227.13
5632.81
3270.47
1963.65
1199.86
6003.7
3437.22
2067.61
1243.97
6175.27
3444.59
1981.39
1189.11
6134
3386.89
1906.64
1145.92
5477.99
3187.54
1938.04
1184.82
4539.36
2795.53
1759.37
1104.51
5205.1
3090.75
1911.45
1171.1
4458.88
2794.96
1758.14
1096.6
5646.68
3236.52
1918.88
1165.19
4568.66
2786.86
1735.27
1094.61
5688.84
3230.01
1881.01
1142.34
4532.55
2764.06
1707.63
1077.2
5442.43
3232.44
1924.99
1183.68
4792.55
2970.09
1825.36
1142.49
5329.43
3179.76
1901.81
1169.61
4718.42
2940.39
1809.93
1136.31
5176.27
3095.83
1886.19
1167.2
4671.19
2902.92
1795.68
1132.66
4826.04
2937.51
1825.4
1169.17
4539.63
2838.5
1786.63
1107.73
4343.46
2778.02
1748.57
1102.35
3908.39
2710.38
1553.64
443.616
2620.99
2549.87
1474.9
462.231
3928.63
2709.15
1558.77
458.987
2713.05
2550.69
1474.77
464.548
3972.8
2694.8
1543.78
442.623
2843.76
2539.91
1457.28
455.388
3927.89
2660.08
1557.05
464.061
2829.57
2508.04
1447.81
457.078
3722.92
2591.59
1570.89
513.677
2462.73
2433.73
1427.31
455.461
3350.17
2442.44
1482.42
468.568
1771.55
2252.23
1378.18
445.15
3480.49
2504.87
1519.5
482.498
1907.4
2329.53
1397.8
447.726
3262.02
2391.29
1430.28
424.36
1662.48
2195.49
1342.26
428.693
3234.79
2356.46
1400.23
410.632
1696.72
2157.84
1316.26
418.921
801.537
489.272
276.889
138.368
41.673
786.889
485.49
275.919
138.084
41.6055
800.984
487.992
275.955
137.891
41.5325
786.78
483.379
274.521
137.398
41.406
810.541
487.244
274.848
137.291
41.3541
789.485
480.708
272.791
136.562
41.1642
770.311
474.197
269.821
135.265
40.8006
750.367
464.86
265.402
133.329
40.2588
802.976
482.647
272.495
136.227
41.0521
841.404
486.28
272.331
135.9
40.9398
826.497
488.096
274.31
136.921
41.2387
860.605
490.352
273.883
136.542
41.1166
782.778
476.209
269.709
135.035
40.7199
830.773
480.736
269.815
134.821
40.6397
768.068
467.88
265.646
133.242
40.2175
819.594
473.649
266.291
133.266
40.2042
832.816
495.04
278.079
138.668
41.7398
884.417
500.367
278.927
138.862
41.7814
834.741
494.363
277.454
138.335
41.6403
885.258
499.708
278.435
138.607
41.7057
843.293
493.658
276.437
137.793
41.4794
889.213
498.449
277.455
138.118
41.5623
861.876
493.849
275.528
137.274
41.3236
894.999
496.229
276.164
137.511
41.3873
881.047
493.043
274.836
136.932
41.2237
14669.6
19536
14701.2
19492.4
14764.7
19381
14378.4
19001.7
13250.9
17874.1
11915.7
13425.2
12100.6
14208.2
11884.3
13203.8
12045.7
13310.5
11631.4
1965.82
421.156
95.3768
17.0513
12524.2
3605.36
883.593
202.647
36.2199
11544.8
1927.3
411.384
92.9983
16.599
12429
3549.61
869.158
198.768
35.2654
11318.8
1879.97
400.163
90.3644
16.1229
12208.7
3472
849.209
194.041
34.4323
10883
1783.83
378.238
85.45
15.261
11789
3337.65
816.188
186.634
33.1337
10118.8
1621.59
343.734
77.9907
13.9727
11023.5
3125.77
767.346
176.121
31.3377
8843.76
1473.88
322.392
74.3402
13.4266
9041.45
2664.12
669.359
156.086
28.0477
9248.12
1514.61
327.276
74.9787
13.495
9664.73
2843.06
708.333
163.875
29.2873
8665.02
1459.54
320.956
74.2216
13.4228
8792.91
2577.11
648.363
151.738
27.354
8609.09
1445.3
317.805
73.5631
13.2972
8769.38
2553.99
641.356
150.529
27.1043
35705.4
51916.7
50049
33625
25827.2
31333.7
24860.4
31179
29502
48027.1
31457.3
49311
44.7652
53.5315
73.0262
106.281
158.622
237.71
51.7813
61.3681
82.5497
118.207
172.869
252.74
39.671
37.2195
48.5222
46.6876
68.3843
68.1795
102.749
106.334
156.415
165.491
233.127
242.168
354.717
523.787
769.185
1125.6
1556.23
1869.18
365.462
518.64
718.472
959.049
1199.27
1356.75
119.262
173.561
216.289
245.538
260.346
142.447
206.892
257.306
291.629
308.94
193.94
280.778
348.065
393.481
416.254
281.513
405.827
500.955
564.455
596.066
418.641
600.052
736.597
826.485
870.857
624.127
887.354
1081.05
1206.37
1267.71
137.831
200.286
249.216
282.578
299.422
163.116
236.477
293.562
332.245
351.695
218.904
316.162
391.015
441.25
466.351
312.496
449.117
552.79
621.538
655.635
455.173
650.055
795.342
890.34
937.096
661.939
937.579
1138.51
1267.8
1331.02
105.763
154.087
192.239
218.434
231.723
99.2619
144.697
180.629
205.339
217.888
129.213
187.898
233.968
265.434
281.337
124.369
180.95
225.437
255.864
271.257
181.769
263.523
327.121
370.194
391.837
181.281
262.943
326.555
369.684
391.37
272.436
393.379
486.337
548.61
579.671
282.007
407.339
503.743
568.351
600.578
413.336
593.597
729.943
820.004
864.519
437.385
628.24
772.588
867.863
914.908
613.216
874.211
1067.47
1192.9
1254.27
637.383
909.388
1110.98
1241.7
1305.51
924.03
1298.05
1564.64
1733.64
1815.98
1348.28
1860.97
2210.71
2428.4
2535.96
1944.28
2614.89
3045.47
3312.44
3453.45
2767.25
3582.7
4064.67
4377.12
4576.4
3690.75
4555.32
5018.91
5363.16
5663
4334.72
5192.21
5620.6
5983.64
6367.76
950.291
1331.37
1601.31
1772.07
1855.42
1335.63
1844.65
2192.49
2409.28
2516.28
1826.94
2477.4
2902.82
3166.24
3301.27
2400.62
3184.27
3671.86
3977.28
4146.97
2953.04
3830.29
4351.05
4688.24
4898.11
3307.08
4231.47
4765.48
5122.24
5362.38
45.3798
55.5094
76.776
112.534
168.477
252.592
52.4682
63.5493
86.5832
124.675
182.483
266.106
40.2526
37.8001
50.4216
48.6127
72.0966
72.0505
109.211
113.365
167.072
177.279
250.54
262.762
375.278
548.256
793.587
1143.16
1564.01
1870.84
382.49
537.925
737.294
973.959
1208.14
1359.57
120.92
176.022
219.419
249.15
264.212
147.781
214.815
267.392
303.279
321.414
204.068
295.855
367.3
415.74
440.109
298.441
431.116
533.332
602.026
636.394
445.412
640.268
788.362
886.81
935.758
664.764
948.882
1160.85
1299.91
1368.66
139.685
203.043
252.73
286.641
303.775
169.007
245.248
304.753
345.197
365.577
229.817
332.449
411.848
465.408
492.271
330.038
475.402
586.539
660.792
697.823
481.344
689.494
846.263
949.822
1001.18
698.521
993.161
1210.83
1352.79
1422.88
107.33
156.408
195.185
221.83
235.355
100.825
147.011
183.564
208.719
221.502
134.332
195.489
243.615
276.563
293.245
129.554
188.635
235.197
267.117
283.293
191.787
278.413
346.088
392.115
415.315
191.723
278.457
346.306
392.503
415.804
289.914
419.452
519.67
587.246
621.116
301.024
435.708
540.012
610.391
645.675
442.271
637.025
785.797
885.048
934.469
469.433
676.437
834.696
940.302
992.877
660.701
945.959
1160.34
1301.57
1371.45
693.499
994.092
1220.53
1369.82
1443.64
980.691
1385.02
1678.84
1868.74
1962.54
1416.87
1968.8
2355.28
2602.07
2725.96
2015.13
2731.3
3207.01
3511.33
3674.15
2822.82
3682.52
4211.51
4565.32
4790.6
3721.01
4618.12
5117.79
5495.82
5819.3
4343.45
5212.95
5654.89
6031.12
6425.06
997.287
1403.66
1696.44
1884.82
1977.86
1389.57
1929.2
2305.6
2545
2664.68
1880.76
2564.26
3021.81
3311.5
3461.66
2444.87
3258.82
3777.29
4108.92
4294.32
2980.77
3879.51
4422.95
4780.1
5002.51
3316.3
4248.47
4790.84
5155.13
5400.13
4662.06
2926.16
522.952
357.79
420.07
347.408
463.484
4139.61
3840.4
2335.65
3000.02
1228.69
1767.54
966.314
1109.16
878.928
3876.6
1923.8
1093.01
943.837
1288.96
1084.09
788.124
722.166
656.635
553.082
829.225
729.165
4233.63
2404.01
2787.85
1638.2
1279.03
1940.12
805.602
572.991
911.835
9172.72
8661.82
8233.07
8589.05
13117.5
6259.21
6728.14
6870.31
7244.23
8094.35
1356.88
1896.44
2279.39
2524.95
2647.5
938.154
1331.54
1620.67
1808.49
1901.07
1102.14
1565.34
1905.53
2125.61
2233.47
913.437
1301.67
1589.52
1777.12
1869.39
1211.11
1709.86
2071.2
2303.67
2417.94
8787.3
9156.88
9034.51
9402.96
13749.3
8333.56
8867.68
8916.24
9264.4
10385.9
5374.15
6384.53
6888.58
7310.35
7799.94
6912.7
7842.32
8059.81
8353.83
8700.05
3059.39
4034.21
4637.96
5013.23
5218.77
4237.99
5309.75
5901.56
6286.89
6543
2456.95
3333.36
3908.95
4263.56
4442.07
2797.34
3751.13
4358.57
4728.69
4917.24
2250.98
3084.47
3643.15
3987.39
4156.8
8190.29
8529.17
8446.92
8852.04
13160.6
4514.24
5507.97
6048.18
6481.15
6939.41
2743.87
3659.49
4243.81
4613.63
4818.9
2386.84
3217.04
3761.69
4109.36
4299.24
3168.54
4111.89
4689.76
5079.79
5343.8
2705.32
3580.44
4135.57
4500.56
4719.63
2004.23
2722.86
3203.79
3512.87
3678.71
1855.6
2556.61
3037.31
3342.31
3497.29
1703.78
2379.62
2854.88
3154.51
3300.96
1441.18
2025.84
2444.22
2710.95
2841.6
2124.79
2915.15
3449.52
3783.68
3951.82
1876.77
2591.89
3083.99
3394.8
3551.02
8580.44
8440.01
8152.09
8536.3
12955.5
5326.08
6015.73
6326.42
6731.41
7407.87
6341.03
7153.88
7362.56
7824.31
9200.04
3887.77
4812.8
5330.91
5736.35
6108.35
3134.45
4048.28
4602.66
4986.78
5253.26
4528.46
5489.98
6009.19
6452.23
6949.3
2051.79
2792.97
3290.13
3608.18
3776.98
1486.99
2078.34
2497.02
2764.1
2896.49
2306.96
3111.42
3640.78
3980.66
4167.01
5610.1
5401.43
5016.5
4386.02
3344.97
1348.29
20633.8
20922.1
23311.5
24197.1
19934.4
20911.6
22065.9
21115.8
17245.1
22442.7
17829.8
22901.6
20399.2
18275.6
29578.6
19631.9
19759.1
21779.9
22381.5
18625.4
19596.5
20896
20214.3
17069.6
27117.2
17547.8
26709.5
20529.5
22534.4
31707.6
18419.9
18402.6
19767.6
20081.3
17531.3
18984.5
19275.8
19169
19446.1
23555
20198.2
23415.2
22200.6
24843.4
28102.9
17202.1
17208
17789.4
17917.2
16724
18420.6
17492.7
17699.8
17868.6
20190.8
18576.3
19505.6
19860.2
21774.7
23667.3
15974.6
16017.9
16342.1
16373
16083.7
17904.8
16206.2
16602
16599.3
16163.9
17326.3
15335.1
17817.8
17650.2
18911.3
15365.4
15461.1
15339.4
15331.3
15431.6
16848.5
15342.7
15649.8
15580.8
13489.7
16069.6
13061.7
16226.1
14954
16674.2
22413.6
21408.6
23923.5
25308.9
20431.6
20203.5
22033.1
20798.5
19287.6
13835.7
19169.1
13889.4
16894
15161.6
17978
20856.6
20120.1
21816.5
22744.1
19486.8
19451.8
20532.3
19492.3
17473.9
13025.2
17394.6
13109.9
15088
13295.3
16171.6
18727.6
18275.8
19209
19684
17877.4
17851.2
18529.9
17859.3
16048.4
12285.3
15768.7
12042.2
13970
11716
15301.1
16498.4
16225.6
16989.5
17226.5
15937.9
15840
16705.9
16154
14396.7
11928.3
14230.6
11674.5
12752.4
11270.5
14753
15094.3
14903.1
15583.1
15717.2
14517.2
14419.6
15467.1
15074.7
13524.4
12231.6
13404.7
12098.8
12275.7
11323.3
14558.2
14071.4
13900.7
14682.8
14779.2
13620.7
13747.1
14554.5
14342.5
13010
12402.5
12958.8
12346.8
11994.5
11513.8
14730.1
12622.1
7166.19
20654.9
13632.2
22645.7
16799.9
35243.3
44110.9
46497.5
57316
30231.8
26349.5
19151.2
15301.3
9373.07
6249.99
21131.9
21240.7
18369.6
21381.1
28526.8
25036.2
33331.6
26532.2
8751.63
6186.96
4892.42
3677.02
10532.8
8549.11
6500.36
5352.02
19963.8
20383.1
20049.4
16366.7
15195.4
12224.4
12181.9
13951.1
19575.8
19606.8
41689.8
43255.2
29080
30126.5
17185.9
14500.1
18385.3
13040
8558.64
8888.52
7165.45
10791.4
3736.34
4723.4
9950.14
14528.3
6011.42
7242.64
10822.2
19454.1
7591.74
12926.9
2857.38
7614.81
2383.54
5656.14
18529.9
23051.1
19487.3
23175.5
22495.4
22577.3
23274.5
22514.2
16850.2
23050.4
16996.3
22614
19363.4
23149.9
19454.8
23173.9
23690
22366.4
23729.1
22228.4
15684.3
23234.6
15212
23374.9
19888.4
24095
25104.6
36131.2
21106.5
28220.5
24915.2
39737.4
18845.3
21035.7
25179.2
34510.6
18666.8
19623.4
25462.5
34179.4
6571.62
8859.89
16998.8
30755.6
8106.13
9402.38
21788.9
34605.1
9812.41
9973.46
27057.2
37559
25800.2
26741.6
22721.6
22808.9
35033.4
26667.3
25908.1
23042.4
20604.2
40683.8
24422.7
24750.5
22815.4
23866.6
45557.5
2418.13
2958.96
5335.45
13101.2
3447.52
4002.09
7295.72
14373.1
4980.28
4245.25
9626.67
15856.7
25814.4
24495.7
23854
22453.4
21417.4
18636.2
16633.2
14252.9
12358.7
18016.4
23790.6
22158.9
24623.6
23443.7
22122.9
20124
19040.1
16745
13026.1
17799.3
24787.3
27651.4
24842.1
28530.8
23397.8
23859.2
22989.2
24279.9
23214.7
23493.4
22987.8
22730.4
24705.6
28732.1
24658.2
28781.8
22401.9
24710
22279
24725.3
23308.6
23440.6
23348.5
23465.8
20043.9
19006.2
13093.5
14790.9
19957.8
18577.3
12943.2
15062.4
20283.8
18903.9
13357.8
14755.1
20371.3
18707.1
13770.8
14731.2
1861.1
1142.54
733.757
1023.33
616.727
559.069
2673.85
1398.09
976.073
1970.19
1460.91
1168.87
2906.66
2095.09
1965.69
3388.13
2549.12
2177.09
22000.1
18412.5
16122.2
20716.4
17889
15917
15167.1
13083
11915.7
10806.3
8538.68
7532.36
5221.85
3456.85
2753.79
20222.2
17281.8
15141.8
21385.9
17959.1
15599
16338.7
12791.5
10855
10986
7912.25
6634.79
5510.74
3401.17
2550.46
28379.2
27387.8
31248.1
27656.1
32280.6
27699.5
39455.1
29510.6
21369.9
21353.6
21180.3
19442.2
24221.1
22350.2
23962.2
20118.1
23736.3
23294.7
21811.1
23035.2
28352.3
25805.7
29378.8
29983.8
32338.6
33629
24207.5
25270.8
21681.4
21125.9
26016.9
26808.8
16327.7
8770.41
15388.9
9707.72
16603
8837.72
15389.1
9637.17
16433.5
8871.17
15423.1
10049
15085.7
10517.3
15312.7
10411.8
21505.4
17998.6
21653.7
18141.1
24050.1
21413.5
24606.1
21398.3
20946.1
14839.4
21582
14508.4
22327.5
18154.3
22703.4
17977.9
25466.1
21346.9
25593.3
21123.8
20909.5
14955.9
20921
14873.2
13465.1
8882.94
11544.4
7515.89
12396.7
7930.94
11002.5
7015.22
13885.4
9444.79
11776.7
7748.99
13936.9
9762.77
11749.3
7797.27
2529.45
1305.95
4691.59
2648.45
2693.81
1589.34
4993.52
3123.29
3279.55
2353.74
5497.43
3980.65
12643
20057.4
9042.4
8644.91
6291.01
19392.5
13155.3
7545.93
7589.44
5175.77
20517.3
15807.3
12342.1
9494.28
6139.05
685.837
462.96
1622.83
1219.03
945.194
598.909
2159.05
1686.39
1591.18
1106.49
2986.53
2373.44
19269.7
17840.9
12654.4
11479.8
7983.81
7516.28
6664.87
5626.61
4374.7
3471.08
18332.9
15965.8
13812
11452
10480.2
8659.23
7864.22
6518.88
5328.84
4830.65
14437.1
10979.9
14684.5
10909.1
17858.6
14247.8
18021.8
14319.2
11932.8
9012.49
11466.2
8890.55
14788.5
10850.7
14721.2
10855.4
18059.8
14738.5
17929.6
14739.9
12216.6
8957.37
12200.7
9073.73
9113.89
7106.52
6249.29
5994.88
8709.45
6847.35
5958.44
5615.54
9532.07
7289.19
6419.34
6334.74
9742.93
7288.21
6659.69
6420.55
1099.16
927.017
745.721
4728.22
2433.75
1931.43
1098.16
1040.64
897.225
5256.11
2952.99
2431
1563.89
1670.83
1654.98
5977.86
3776.27
3253.94
15656
13561.8
12248.2
10159
9078.85
8469.97
7026.14
6386.81
6093.05
5656.88
5070.46
4734.4
7003.95
4757.63
4136.27
13574.5
11459.5
10154.6
9524.64
8060.78
7266.2
7448.84
6285.1
5682.51
6706
5475.14
4814.5
8674.76
5409.55
4627.98
4699.6
2698.49
1615.71
1003.83
5260.93
2918.42
1700.79
1033.63
4726.76
2701.53
1621.42
1009.71
5372.85
2982.64
1746.53
1060.27
4728.62
2685.89
1652.58
1033.17
5487.78
3026.13
1816.48
1100.71
5890.12
3190.9
1818.42
1093.33
6041.05
3299.41
1851.49
1112.78
5026.23
2858.61
1732.94
1062.59
4222.41
2555.99
1609.51
1011.99
4451.96
2609.95
1635.98
1015.87
3920.88
2420.95
1551.51
980.67
5409.17
3043.78
1792.72
1088.23
4402.52
2652.87
1643.74
1033.98
5616.57
3166.02
1838.15
1115.7
4480.65
2720.51
1676.68
1056.43
3602.72
2338.24
1489.52
958.054
2492.21
1920.77
1336.37
898.21
3622.66
2333.87
1492.4
959.192
2597.55
1950.06
1346.29
904.065
3721.82
2344.31
1516.27
975.538
2894.45
2037.29
1381.33
925.224
3709.11
2307.66
1506.27
1000.09
3158.02
2103.79
1431.55
935.323
3519.4
2262.24
1486
967.116
1478.34
1596.01
1089.78
330.755
460.11
1422.72
996.599
332.683
1671.07
1661.39
1116.85
347.994
672.937
1493.98
1019.82
340.264
2040.68
1778.18
1153.98
347.991
1048.92
1614.69
1051.6
344.707
2510.71
1922.68
1218.25
377.446
1479.01
1754.82
1100.58
360.259
2857.25
2062.24
1299.19
433.36
1668.72
1871.34
1147.32
374.23
3090.13
2225.27
1334.05
418.654
1590.18
2017.43
1236.07
399.49
2998.17
2154.49
1309.74
417.461
1515
1951.2
1191.05
384.942
3134.37
2273.23
1342.7
394.371
1587.47
2070.16
1261
401.794
3197.64
2318.93
1371.51
400.639
1678.38
2118.97
1290.2
410.174
679.611
426.083
246.357
124.954
37.9225
675.372
425.607
246.612
125.148
37.9834
689.28
430.694
248.246
125.706
38.1239
689.378
431.463
249.091
126.16
38.2573
709.058
436.768
250.535
126.604
38.3638
707.291
437.755
251.781
127.274
38.5611
714.391
444.514
255.214
128.789
38.9831
729.857
453.686
259.865
130.867
39.5668
728.378
443.89
253.725
127.953
38.7345
771.818
451.906
255.861
128.658
38.912
731.525
441.917
252.222
127.225
38.5263
770.593
448.887
254.203
127.916
38.7038
733.831
449.749
256.77
129.309
39.1138
785.9
457.559
258.599
129.869
39.251
751.154
458.722
261.135
131.239
39.6548
804.179
465.577
262.359
131.524
39.715
694.292
427.852
246.28
124.791
37.867
723.884
430.048
246.306
124.697
37.8336
703.742
431.548
247.721
125.351
38.0153
731.809
432.916
247.427
125.133
37.949
722.348
437.367
249.854
126.179
38.2356
748.083
437.865
249.306
125.871
38.1456
749.557
443.718
251.963
126.979
38.4476
767.427
443.117
251.392
126.711
38.3716
774.5
446.95
253.131
127.441
38.571
13129
20496
13614.9
20677.9
14171.1
20719.1
14353.7
20515.7
13379.6
19243.6
11884.7
13483.7
12066.9
14453
11862.9
13211.4
12038.4
13309.8
11833.7
2028.54
436.644
98.8573
17.6467
13199.1
3775.95
923.371
211.335
37.6981
11831.9
2007.75
430.298
97.1696
17.3094
13173.6
3731.73
910.74
207.692
36.7617
11713.2
1964.2
418.436
94.2619
16.7766
13011.3
3658.14
890.013
202.571
35.8433
11325.8
1862.61
394.237
88.7781
15.8136
12572.6
3511.64
853.166
194.224
34.3764
10458.7
1677.9
355.131
80.3878
14.3741
11638.9
3262.65
796.663
182.175
32.3315
8900.58
1486.85
325.829
75.1908
13.5817
9123.05
2697.41
678.736
158.337
28.4478
9390.11
1543.06
333.909
76.4859
13.7572
9894.25
2917.75
726.678
167.914
29.9702
8684.85
1464.83