/*--------------------------------*- C++ -*----------------------------------*\
  =========                 |
  \\      /  F ield         | OpenFOAM: The Open Source CFD Toolbox
   \\    /   O peration     | Website:  https://openfoam.org
    \\  /    A nd           | Version:  11
     \\/     M anipulation  |
\*---------------------------------------------------------------------------*/
FoamFile
{
    format      ascii;
    class       volScalarField;
    location    "1.1";
    object      gradTx;
}
// * * * * * * * * * * * * * * * * * * * * * * * * * * * * * * * * * * * * * //

dimensions      [0 -1 0 1 0 0 0];

internalField   nonuniform List<scalar> 
5712
(
-7467.68
-9547.78
-17584.3
-25803.6
-26392.6
-45456.5
-20144.4
-51159.8
-16310.3
-35808.8
-24393.5
-37172.8
-21792.2
-28738.7
-9616.07
-11039.2
-16979.7
-19503.2
-21700.3
-21544.7
-16965.9
-20845
-24878.7
-22269.7
-6174.27
-4745.58
-7658.59
-5243.51
-14381.8
-11709.5
-24378.6
-17892.1
-18823
-19668.6
-21170.3
-20594.2
-7753.65
-5903.4
-44102.9
-59056.7
-28613.8
-35097.2
-58747
-76352.2
-30457.1
-34891.9
-32980.4
-46577.5
-28948.4
-38270.8
-17108
-27403.6
-3390.6
-1153.61
-3548.53
-1289.36
-10205.3
-4155.63
-13853.5
-5146.78
-10069
-3832.27
-10428.8
-3367.91
-17627.7
-5645.79
-22716.2
-7714.7
-26812.1
-13517.9
-24571.4
-14550.5
-24774.2
-16056.5
-21837
-16214.5
-19671.1
-11753.7
-19763.4
-10269.4
-25394.2
-16058.5
-25480.6
-16163.7
-23107.1
-17060.5
-23395.3
-17079
-21216.6
-13429
-21974.1
-13726.4
-20267.9
-8950.32
-9562.1
-11872.6
-20325.3
-9841.39
-8476.91
-12218.3
-21443.2
-8854.69
-10734.7
-11852.4
-22516.7
-9051.05
-11623.6
-12324.3
-4381.62
-4811.86
-1499.14
-3066.24
-12685.1
-13451.3
-5050.05
-9309.29
-16256.8
-17873.4
-8254.27
-14205.8
-12242.7
-338.676
-14537.2
-18716.9
-10603.9
37.4136
-6910.79
-13436
-22078.4
-16646
-11060.4
-13762.1
-12500
-11198.5
-17773.5
-4076.85
-3257.06
-2371.01
-2325.98
-11347.3
-9221.9
-7129.55
-6708.47
-13980.8
-11238.5
-9302.36
-8224.49
-5516.84
-7228.01
-11739.6
-12374
-15075.1
-13610.6
-17120.2
-14551
-12480.9
-10515.3
-9431.83
-9385.04
-12611.8
-9146.22
-11789.9
-7824.65
-10502.3
-6613
-12854.3
-8141.06
-10637.1
-4006.88
-9359.13
-9581.78
-12978.7
-16272.3
-14367.8
-20425.1
-7625.01
-7926.47
-9560.14
-1958.59
-8424.97
-15677.9
-8027.84
-16965.6
-14268.3
-25339.1
-14521
-27067.7
-6591.3
-13793.8
-6066.46
-14856.6
-9239.56
-6478.89
-13163.1
-4830.76
-9161.68
-702.171
-11296.1
197.866
-8999.27
-10119.8
-13844.6
-6202.61
-7549.17
-12068.5
-12359.5
-8230.53
-2454.78
-2076.1
-1718.34
-1788.69
-1577.35
-1330.4
-7124.39
-5397.8
-4350.55
-4775.98
-3517.87
-2839.76
-8294.4
-6640.4
-5901.28
-5674.75
-4209.51
-3791.48
-5981.57
-4811.22
-4518.08
-10449.1
-7123.46
-5645.99
-10392.7
-6888.89
-5170.27
-10795.8
-7765.13
-6402.28
-7488.42
-4463.99
-3235.46
-14964.8
-11863.9
-9550.98
-10115.9
-7696.08
-5801.15
-9542.63
-6705.8
-4773.77
-8473.06
-5530.64
-3744.95
-9464.92
-4906.28
-2429.59
-11082.2
-14836.1
-8915.69
-11334.2
-12342
-17886.4
-11159.4
-15940.3
-10.5227
-700.732
512.998
-137.967
-3033.14
-3313.75
-1346.9
-754.434
-881.787
-2557.71
-9781.74
-14067.1
-6664.77
-3892.35
-10651.2
-10581.2
-16777.3
-18491.6
536.18
4304.96
-7952.77
-7440.69
-7461.05
-5723.98
-1024.54
-533.178
-733.763
-338.747
-2006.41
-159.806
217.797
736.008
-9298.34
-2231.07
-6480.9
-1655.94
-9289.06
-2771.22
-11172.1
-3451.7
-9491.71
-12221.5
-8689.13
-11860.6
-15515.3
-15970.2
-14712.4
-15030.2
-5776.81
-9154.86
-6715.99
-9131.71
-9160.73
-11386
-10034.9
-11437.2
-15296.7
-14708.8
-15972.5
-14707.2
-5789.8
-8818.34
-6237.05
-8913.6
333.398
-935.137
-6725.21
-3642.64
810.945
-562.625
-6232.78
-3196.75
-95.2335
-1192.37
-6842
-3973.52
-474.274
-1407.59
-6812.71
-4065.6
668.85
759.118
-140.366
33.4399
2805.1
2767.36
268.5
480.235
650.566
1897.19
-1328.39
-635.611
10031.5
9981.34
5325.16
4108.74
632.487
10825.7
10546.5
4012.67
5895.16
1033.59
-10903.8
-8274.33
-6882.09
-6001.17
-3130.99
702.938
590.986
85.9168
35.2992
2256.26
1999.64
286.217
141.319
2297.37
2515.95
-295.117
-411.362
5007.23
1915.93
7601.81
4312.63
3228.28
2191.78
3653.35
2902.7
6.15291
-624.867
-4002.85
-2480.88
-1233
731.026
-942.664
616.446
-1260.54
-91.8142
-1222.81
-1298.77
-5133.41
-4527.28
-9682.66
-5759.18
-8284.63
-8011.63
-12502.4
-9927.85
-7164.93
-4057.56
-3526.67
-3345.05
-11404.5
-4981.91
-12502.4
-5568.35
-13931.1
-10150.4
-14838.3
-10922.9
-8729.03
-3286.18
-9744.4
-3801.25
-5064.77
-3683.51
-3195.01
-4596.57
-3145.32
-3327.81
-2673.71
-4242.68
-5888.76
-3576.07
-3619.52
-5287.72
-7246.77
-3869.78
-4760.15
-5426.87
522.454
505.46
546.434
47.606
178.971
191.688
1898.34
1845.64
1773.3
216.425
513.8
495.257
2495.45
2520.7
2460.29
-260.344
511.938
650.673
836.755
688.335
394.066
2732.47
2671.15
2396.4
2143.82
2283.31
2177.25
2679.08
2640
2470.2
-739.603
231.613
295.091
-3586.65
-2046.35
-1136.97
452.202
1248.94
1652.85
517.986
1446.13
1821.65
255.673
1197.67
1445.12
-1391.69
298.806
487.313
20.3832
19.6242
19.0974
27.4779
200.314
94.1875
67.1022
53.2337
6.22082
33.6848
86.8599
114.043
315.78
163.545
171.144
149.891
-172.165
-7.02048
127.175
212.29
87.1975
109.824
131.014
129.095
-12.3543
57.2677
46.8458
41.2895
-189.041
-28.6375
50.4259
79.0667
-731.342
-174.518
-5.46532
90.7737
-1083.41
-265.12
-68.6334
177.066
-489.183
-86.813
56.8064
171.539
-881.665
-202.88
-76.2691
146
-784.19
-200.141
20.8303
136.791
-1216.74
-311.684
-74.255
213.82
-861.038
-243.48
24.2778
173.091
-1305.07
-349.595
-87.484
222.07
11.8099
11.8718
18.1697
36.5368
39.3336
21.308
8.18564
32.5109
71.5625
45.6537
65.4492
104.516
154.326
73.9429
31.7813
89.9935
-283.16
-53.8932
53.4659
169.272
-99.3315
10.6517
28.9014
155.863
-22.0864
67.0096
102.809
178.856
28.303
60.6508
21.031
156.04
-741.619
-156.723
-50.3925
212.223
71.2368
31.4733
16.3664
27.377
123.695
46.8742
20.3825
14.3165
152.86
74.5069
30.3331
67.1104
320.374
124.976
49.3938
35.8113
112.918
81.248
37.3853
107.822
418.935
175.838
73.371
55.1865
-18.7021
70.8201
44.5754
150.534
357.869
189.008
84.0228
67.6684
-347.175
-0.14178
-11.0307
131.489
153.678
159.074
68.6472
64.7046
-849.462
-113.399
-38.0415
144.414
-255.002
23.1612
27.7117
50.5827
-633.337
-45.2902
-27.1743
133.297
-115.372
84.0807
49.6487
60.0371
-1036.2
-185.209
-57.7548
156.919
-369.141
-29.7497
11.1747
45.1644
-1166.68
-247.997
-80.6928
152.271
-461.9
-78.3803
-7.71868
37.4832
11.9383
4.43847
1.81387
0.819576
0.46851
15.7297
6.57043
2.8719
1.33929
0.776194
28.5144
10.2029
4.1362
1.86871
1.06926
34.4854
14.3697
6.30211
2.952
1.71612
37.7049
12.6949
5.07019
2.28459
1.30721
45.2329
18.7374
8.2277
3.86467
2.25109
22.6697
9.32594
4.09598
1.93252
1.13032
16.6977
5.63889
2.2406
1.01596
0.586251
36.054
12.5997
5.14182
2.34707
1.35204
17.2978
5.25577
2.02256
0.903308
0.51606
38.8289
14.5381
6.19038
2.87311
1.66452
16.6524
5.2646
2.083
0.938573
0.53757
27.8438
8.34261
3.1507
1.39617
0.796725
16.373
4.63545
1.73975
0.773566
0.442615
25.2707
5.78884
1.77116
0.702564
0.383064
14.0044
2.79622
0.788086
0.300799
0.16157
10.1685
3.47211
1.37359
0.611391
0.347008
7.62586
2.79097
1.14727
0.518239
0.295505
25.1213
8.59562
3.46084
1.55881
0.890227
19.8304
7.24963
3.01741
1.37486
0.787888
34.8385
10.6209
4.11442
1.83066
1.04196
26.7291
9.81797
4.14248
1.90411
1.09689
30.8469
11.3988
4.87293
2.25848
1.30567
18.1593
7.3061
3.18969
1.48638
0.861133
15.5859
6.0933
2.66274
1.24248
0.719977
-167.106
-360.879
-260.309
-844.313
4.12557
-979.392
767.939
-582.939
1506.56
586.791
-427.653
-1058.81
1035.28
918.497
-1121.01
-1940.32
-1572.5
-2321.32
-825.166
-196.157
-44.9551
-10.0985
-2.58289
-216.384
-116.476
-15.8692
-4.47531
-2.08728
-2531.49
-598.262
-137.581
-30.7545
-7.87839
-496.54
-147.443
-38.0246
-8.25134
-2.34176
-4217.89
-998.616
-230.382
-51.7039
-13.2249
-817.649
-257.556
-65.4583
-15.7939
-4.11086
-5581.54
-1325.54
-307.326
-69.2546
-17.7557
-954.08
-325.876
-85.3502
-20.7713
-5.38195
-6855.11
-1644.81
-384.402
-87.1667
-22.4731
-1065.98
-400.904
-107.732
-26.4846
-6.9354
-7878.29
-1948.95
-462.628
-106.051
-27.5466
-1838.09
-582.429
-147.714
-34.836
-8.986
-7429.1
-1832.72
-432.867
-98.7131
-25.5246
-1343.09
-480.139
-126.712
-30.6345
-7.92957
-8058.46
-1994.91
-474.545
-109.026
-28.3893
-2135.76
-648.168
-161.357
-37.4415
-9.62108
-8366.9
-2052.9
-489.008
-112.331
-29.2468
-2239.98
-679.578
-170.371
-36.7712
-9.97467
-612.383
-7764.43
-7092.3
-2523.29
1749.27
2960.5
8208.71
12054.8
1712.46
8776.73
-2149.3
2395.68
2476.69
5156.48
9974.3
14226.4
15094.1
19036.6
6168.05
8009.74
-20100.5
-14253.9
-3681.9
-2567.08
-1806.56
-2483.42
-2546.92
-11958.2
-10474.9
-9231.43
-9240.16
-7120.45
-5192.71
-7155.01
-4305.36
-3646.66
-4267.5
-2923.53
-19548
-9531.32
-2933.13
-5152.1
-7571.08
-5080.33
-5270
-3812.3
-2127.02
-2965.24
-3383.7
-3702.97
-19665.5
-12535.8
-11745.1
-8270.86
-7874.17
-8588.21
-3144.86
-3967.03
-5553.88
-13648.1
-11132.9
-8646.88
-7202.74
-5509.53
-9038.01
-6004.56
-4367.6
-3058.39
-1427.96
-3203.95
-2609.54
-1917.83
-1174.86
-397.689
-2268.77
-1875.01
-1391.71
-855.001
-288.518
-1588.58
-1304.27
-961.064
-586.687
-197.199
-2201.6
-1824.14
-1355.51
-832.364
-280.517
-2235.11
-1832.51
-1350.19
-825.267
-277.851
-7370.21
-5319.01
-3847.14
-3186.7
-3047.35
-5486.92
-3801.65
-2502.05
-1898.5
-1236.43
-5715.53
-3427.6
-2276.58
-1469.04
-649.62
-4645.03
-3000.69
-1884.64
-1259.18
-682.476
-3276.79
-1985.73
-1180.41
-750.988
-341.478
-4044.88
-2962.08
-1997.87
-1165.24
-393.198
-4848.63
-3120.33
-2005.61
-1164.61
-417.381
-2807.3
-1691.93
-1011.25
-542.039
-179.096
-2962.84
-2247.03
-1550.71
-910.298
-303.167
-3359.83
-2467.86
-1652.36
-946.439
-310.708
-2403.59
-1840.84
-1277.05
-748.983
-247.811
-12444.1
-8995.04
-6734.39
-5376.7
-4524.13
-6857.58
-4838.25
-3388.87
-2167.84
-909.448
-2401.86
-1842
-1289.23
-768.93
-260.658
-4285.43
-3347.35
-2388.2
-1449.44
-498.769
-6075.23
-4640.11
-3296.08
-2038.45
-742.693
-4241.1
-3333.71
-2399.59
-1470.76
-510.176
-4476.51
-3571.99
-2594.64
-1590.94
-546.087
-3265.46
-2617.27
-1898.92
-1155.74
-391.493
-1811.13
-1436.6
-1026.88
-614.375
-204.902
-2579.71
-2094.7
-1529.64
-929.117
-312.009
-2837.16
-2220.3
-1574
-940.801
-315.628
-3159.22
-2519.29
-1817.4
-1100.29
-371.438
-13095.4
-10239.3
-7914.61
-6343.14
-4877.17
-8476.37
-5877.58
-4266.39
-2918.09
-1360.87
-8380.42
-6376.01
-4566.84
-3113.31
-1397.97
-6345.77
-4665.91
-3352.73
-2156.77
-834.439
-6421.54
-4987.74
-3592.82
-2241.55
-812.777
-6538.26
-4779.24
-3414.47
-2186.53
-834.839
-2646.91
-2089.57
-1502.73
-915.165
-313.355
-3449.93
-2803.38
-2052.07
-1250.98
-421.496
-4696.11
-3725.16
-2690.05
-1641.64
-561.415
-6406.44
-13141.4
-13491.4
-37379.2
-13121.4
-49402
-7233.17
-17640.9
-13129.8
-10067.2
-22112.9
-18314.6
-12888.5
-11899.3
-24515.2
-19143.6
-4747.19
-3557.16
-9295.34
-6458.62
-10612.8
-8023.49
-28806
-21477.9
-17356.9
-13004.9
-17930.5
-10607.5
-1265.88
-4346.23
-46065
-59897
-27698.9
-34973.9
-60243.2
-77005.3
-29413.8
-34648.8
-34596.6
-47421.5
-28133.3
-38271
-19024.1
-28344.1
-2318.6
-618.657
-4109.21
-1408.37
-7884.83
-3573.66
-16073.3
-5840.74
-3423.21
-1980.45
-8572.5
-2717.16
-17725.7
-5600.78
-22969.3
-7785.22
-18101.2
-9555.53
-21189.8
-12557.9
-16090.7
-11649.7
-18424
-14123.5
-17288.8
-10156.3
-13578.6
-7194.82
-24113
-15176
-25167.4
-15925.3
-21753.1
-16153.2
-23033.6
-16834.4
-20376.3
-12707
-21785.5
-13529.5
-19221.1
-8648.04
-8512.89
-11475.2
-17157.7
-8897.76
-6492.85
-11438.8
-21230.8
-8801.55
-10258.3
-11671.5
-22519.8
-9057.18
-11494.3
-12275.2
-1329.32
-1232.84
-341.266
-1560.67
-5412.44
-5702.12
-3494.87
-7141.11
-3216.07
-4002.45
-5557.77
-10603.8
-12555.8
-9485.97
-10313.1
-13255.3
-9138.46
-7321.16
-8200.7
-7899.81
-15476.6
-14407
-12653.8
-11074.9
-8113.82
-7250.69
-15815.2
-1347.58
-1003.71
-778.707
-877.726
-5080.94
-3982.79
-4422.9
-3906.07
-926.288
373.462
-5279.64
-4163.72
-10015.3
-10650.1
-9457.72
-8740.51
-7690.76
-5590.2
-10266.8
-8109.48
-9909.52
-7756.44
-11871.5
-11668.5
-10450.5
-7649.93
-8003.83
-5009.69
-7341.06
-4310.77
-11504.5
-6790.66
-9566.4
-4545.13
-8642.67
-9523.89
-13262.1
-17309
-14058.4
-20402
-6852.27
-7807.84
-8171.72
-2321.07
-8082.26
-15539.6
-7927.17
-16906.3
-14020.5
-25369
-14434.9
-27027.6
-6238.89
-13666.3
-5966.75
-14809.2
-8740.14
-6483.68
-13037.4
-4982.02
-8221.06
-1289.9
-11174.8
-796.074
-8776.31
-10065.5
-13786.2
-6230.28
-7480.4
-12044.3
-12339.7
-8229.81
-964.423
-888.907
-701.689
-806.841
-3024.27
-2225.2
-2834
-2588.62
978.254
376.003
-3301.94
-3600.82
-10441.7
-9666.41
-7860.75
-6532.54
-4473.23
-3631.45
-6403.08
-5199.11
-6549.05
-4719.85
-17983.4
-15186.7
-8226.94
-6560.33
-6632.06
-4630.87
-5768.29
-3353.88
-6481.65
-2498.63
-5662.24
-9314.46
-4862.9
-9609.61
-8892.83
-10929.5
-10080.4
-13714.2
-923.798
-604.256
-607.401
-470.664
-3517.38
-2321.93
-2716.33
-1271.83
-992.615
-1410.27
-8219.95
-8739.61
-4334.47
-3788.52
-9736.36
-10302.6
-15625.7
-18140.2
621.678
4270.67
-7282.08
-7235.8
-7077.63
-5636.95
-940.614
-813.722
-994.063
-790.003
-1456.45
-814.729
-268.581
-154.788
-7651.16
-3143
-6472.86
-2571.72
-9108.33
-3280.8
-11088.4
-3645.69
-5303.14
-10218.1
-7092.02
-10746.6
-9024.56
-12198.2
-12121.2
-13247.2
-4991.27
-8719.34
-4409.58
-8637.85
-8417.16
-10882.7
-9805.31
-11297.7
-14163.8
-13936.8
-15642.5
-14497.2
-5434.79
-8608.22
-6124.74
-8855.7
85.6723
-1430.46
-6892.25
-4048
114.654
-1459.19
-6797.57
-3853.96
-263.313
-1526.71
-6909.39
-4208.08
-538.238
-1538.35
-6828.77
-4143.75
-935.636
-999.129
-832.597
-856.113
-1767.68
-1762.01
-1034.61
-1059.54
-7708.98
-6895.42
-3085.92
-2964.27
-3273.62
-4712.26
-3581.95
294.047
-1061.61
-797.659
-1058.37
-3479.63
2798.47
-222.524
-14466.8
-11737.3
-9941.1
-8017.13
-4320.76
-978.608
-842.279
-929.286
-1084
-1711.1
-1317.64
-1343.61
-1746.75
-6975.65
-6611.92
-3214.96
-3980.83
-4722.05
-6446.56
-2763.13
-4687.1
-4359.16
-4688.68
-636.033
-1048.78
-1810.25
-2772.01
-9601.18
-7644.87
-7198.76
-5104.18
-5835.15
-4039.11
-4674.36
-3215.77
-2826.14
-2970.4
-7705.08
-7455.84
-10550.3
-6719.47
-10212.3
-10705.8
-12894.9
-10721.4
-8259
-4958.17
-5934.6
-5788.18
-11656.8
-5526.53
-12549.2
-5686.01
-13920.3
-10596.7
-14807.7
-11000.2
-9165.31
-3812.57
-9853.3
-3929.73
-6087.52
-4446
-4049.32
-5386.37
-5097.49
-5183.08
-3995.84
-5638.31
-6379.88
-4048.92
-4078.13
-5766.06
-7390.22
-4008.93
-4902.74
-5557.65
-639.928
-560.324
-776.458
-605.554
-1161.08
-1400.43
-1101.03
-886.732
-6277.53
-5490.9
-2589.33
-1200.25
-7504.05
-6957.87
-5636.02
-4946.18
-4460.2
-3807.1
-1438.58
-1532.11
-2633.79
-1269.89
-8293.28
-6904.96
-4527.35
-3620.1
-3322.59
-2290.5
-2204.38
-1186.24
-2697.34
-93.8173
-144.347
-60.1051
-20.6617
7.9383
-104.27
-59.6739
-8.19907
15.7626
-398.57
-160.931
2.16659
77.196
-298.296
-155.517
20.1381
75.0223
-684.568
-251.103
27.053
178.928
-614.048
-265.938
-65.6344
20.2684
-438.784
-181.339
-81.884
-24.8897
-369.866
-134.213
-6.75524
48.8389
-1082.91
-357.943
-106.872
30.9796
-1295.4
-363.174
-117.109
167.359
-1013.55
-330.682
-63.519
107.237
-1165.6
-322.259
-132.384
141.811
-1031.4
-336.736
-50.4151
102.993
-1354.87
-380.09
-111.186
201.832
-960.236
-300.235
-5.63093
158.569
-1354.56
-375.167
-101.472
217.575
-139.758
-52.1861
-9.26057
26.9492
-119.461
-38.9593
-19.7145
23.7975
-357.051
-133.799
-8.87672
76.1901
-296.087
-99.3753
-46.958
63.7328
-746.799
-245.978
-22.5202
149.949
-669.64
-207.816
-69.012
129.672
-802.819
-264.391
-40.8564
122.758
-607.583
-186.756
-82.4302
143.639
-1162.84
-316.423
-119.6
222.445
-86.3736
-28.0483
-7.93269
17.8378
-38.7946
-17.0034
-5.29179
1.32842
-261.547
-82.2204
-38.5466
38.5895
-127.557
-51.2196
-23.5242
-0.818319
-470.731
-140.176
-61.0935
68.0145
-259.318
-91.6976
-36.2868
0.69987
-719.73
-203.452
-75.9345
106.442
-455.425
-138.134
-48.8848
2.7191
-955.825
-251.003
-132.945
77.6878
-611.603
-168.106
-72.0145
-7.40322
-1278.42
-330.01
-148.316
94.3317
-614.198
-164.94
-65.0026
0.0992579
-1222.98
-316.723
-160.984
73.1461
-673.222
-178.927
-71.7797
-5.5132
-1283.62
-317.872
-127.313
126.006
-563.961
-141.014
-45.0861
15.526
-1245.22
-291.618
-103.933
141.89
-520.031
-113.182
-25.6832
28.0338
0.514876
-1.5791
-1.1139
-0.621299
-0.390417
-4.84371
-3.71723
-2.06006
-1.07894
-0.664405
2.02593
-3.68929
-2.60815
-1.44911
-0.908772
-11.0896
-8.47425
-4.66932
-2.4341
-1.49491
5.325
-4.40542
-3.22752
-1.79696
-1.12643
-15.5381
-11.4448
-6.23361
-3.23223
-1.98036
-8.28455
-5.94103
-3.2218
-1.66327
-1.01563
0.965164
-2.15949
-1.50799
-0.829363
-0.516202
-0.0353149
-5.37582
-3.48113
-1.88596
-1.17194
3.80992
-1.56754
-1.26214
-0.711012
-0.44697
-7.37891
-8.02327
-4.53914
-2.37715
-1.46239
2.17217
-1.9385
-1.36177
-0.74961
-0.468243
7.16522
-2.09378
-1.88173
-1.0802
-0.681521
4.70206
-1.21549
-1.07185
-0.608931
-0.382787
15.9354
1.04901
-0.521056
-0.427308
-0.291829
10.1461
0.825091
-0.165147
-0.168979
-0.11894
2.00873
-0.959453
-0.784709
-0.449339
-0.284674
-0.224913
-1.11083
-0.703752
-0.383662
-0.240018
2.6428
-3.11407
-2.17069
-1.19925
-0.750998
-2.08483
-3.39471
-1.99951
-1.066
-0.661271
9.49611
-3.02012
-2.48607
-1.40848
-0.887109
-4.82074
-5.23818
-2.9273
-1.535
-0.945828
-7.03623
-6.70622
-3.65923
-1.9023
-1.16915
-7.93189
-4.72927
-2.42124
-1.23955
-0.757922
-6.42852
-4.11765
-2.12322
-1.08933
-0.666964
16.7717
-182.774
130.121
-446.902
357.804
-579.833
826.882
-415.291
1203.7
324.145
-582.147
-1226.67
650.619
384.348
-1175.96
-1989.84
-1583.75
-2329.65
-773.119
-186.491
-43.0545
-9.72243
-2.49884
-185.57
-109.508
-15.2077
-4.34664
-2.02289
-2385.64
-570.511
-132.049
-29.6622
-7.63347
-435.188
-139.362
-36.9221
-8.14034
-2.32085
-4001.39
-956.349
-221.863
-50.0098
-12.8455
-762.35
-249.849
-64.3705
-15.6211
-4.08066
-5349.47
-1278.17
-297.562
-67.2861
-17.3118
-954.758
-325.668
-85.2534
-20.7234
-5.37165
-6665.85
-1601.72
-375.03
-85.2204
-22.0264
-1141.19
-409.873
-108.774
-26.5762
-6.94306
-7823.01
-1931.19
-458.047
-104.999
-27.2882
-1878.18
-588.919
-148.655
-34.9566
-9.001
-7326.67
-1802.73
-425.681
-97.1452
-25.1549
-1434.02
-492.162
-128.293
-30.8247
-7.95631
-8033.8
-1986.31
-472.17
-108.455
-28.2438
-2147.1
-650.119
-161.63
-37.4734
-9.62379
-8359.96
-2050.36
-488.276
-112.15
-29.1999
-2241.18
-679.741
-170.378
-36.7723
-9.97363
-509.892
-7605.12
-6614.67
-2193.49
-1620.45
-842.151
-3772.38
-2539.51
-6952.63
-6422.49
-3360.51
-2462.81
-188.782
-306.679
-556.763
-957.093
-1525.96
-2252.81
-141.555
-322.654
-701.734
-1287.12
-2059.67
-2951.48
-139.857
-63.9176
-253.229
-169.314
-490.958
-396.141
-868.39
-787.123
-1330.54
-1245.83
-1885.19
-1644.34
-2999.72
-3636.27
-4240.22
-6826.16
-8057.05
-9122.63
-3820.93
-4466.21
-4696.3
-4517.15
-4074.34
-3712.67
-169.938
-143.325
-108.341
-67.3717
-22.849
-275.735
-232.219
-175.28
-108.874
-36.9015
-499.852
-420.236
-316.656
-196.433
-66.5336
-857.559
-719.318
-540.833
-334.96
-113.363
-1363.3
-1139.82
-854.439
-528.103
-178.56
-2003.61
-1667.03
-1244.45
-767.175
-259.147
-127.339
-107.308
-81.0464
-50.3658
-17.0754
-289.839
-243.839
-183.86
-114.114
-38.6615
-629.424
-528.614
-397.927
-246.674
-83.5214
-1152.08
-965.262
-725.022
-448.74
-151.826
-1838.05
-1534.92
-1149.51
-710.087
-240.048
-2622.78
-2180.43
-1626.81
-1002.7
-338.717
-125.959
-106.297
-80.3995
-50.02
-16.9685
-57.5791
-48.6046
-36.7727
-22.8827
-7.76346
-227.839
-192.044
-145.077
-90.1706
-30.5726
-152.409
-128.535
-97.1533
-60.4101
-20.4868
-441.178
-371.306
-280.076
-173.875
-58.916
-356.175
-299.963
-226.406
-140.623
-47.6603
-778.891
-654.098
-492.325
-305.144
-103.308
-706.328
-593.463
-446.885
-277.059
-93.8109
-1190.1
-996.221
-747.55
-462.309
-156.345
-1114.88
-933.69
-700.832
-433.447
-146.577
-1678.05
-1397.12
-1043.28
-643.084
-217.167
-1464.58
-1219.9
-910.912
-561.24
-189.434
-2648.98
-2188.21
-1624.46
-998.708
-337.275
-3173.57
-2593.15
-1911.17
-1172.76
-397.039
-3626.67
-2914.07
-2128.52
-1308.17
-447.781
-5629.7
-4411.36
-3196.7
-1991.93
-709.293
-6252.72
-4735.39
-3418.57
-2201.11
-858.733
-6772.78
-5016.39
-3616.63
-2387.62
-994.157
-3375.43
-2789.52
-2071.82
-1274.2
-430.347
-3912.69
-3208.24
-2370.21
-1455.41
-492.172
-4063.63
-3296.63
-2420.84
-1486.63
-505.189
-3829.68
-3058.56
-2230.9
-1376.17
-474.593
-3326.03
-2589.75
-1875.8
-1174.83
-422.026
-2915.81
-2214.51
-1594.89
-1016.96
-382.261
-195.211
-327.843
-598.214
-1027.98
-1638.9
-2411.48
-149.986
-350.659
-756.569
-1377.46
-2188.6
-3107.24
-145.485
-68.1583
-272.401
-184.79
-530.619
-431.688
-941.134
-859.042
-1457.92
-1401.68
-2076.83
-1915.39
-3188.21
-3836.51
-4444.74
-6972.48
-8123.7
-9140.89
-3975.05
-4584.61
-4758.35
-4520.53
-4045.22
-3695.96
-175.783
-148.317
-112.164
-69.775
-23.669
-294.99
-248.674
-187.893
-116.808
-39.6098
-537.612
-452.556
-341.469
-212.062
-71.8722
-922.265
-774.836
-583.563
-361.929
-122.585
-1466.67
-1228.79
-923.145
-571.582
-193.451
-2149.58
-1793.44
-1342.66
-829.632
-280.6
-135.003
-113.851
-86.0577
-53.5155
-18.15
-315.321
-265.619
-200.557
-124.617
-42.247
-679.394
-571.404
-430.795
-267.383
-90.5969
-1234.58
-1036.11
-779.595
-483.206
-163.617
-1956.2
-1636.78
-1228.3
-760.013
-257.161
-2766.32
-2304.97
-1723.78
-1064.48
-359.958
-131.072
-110.66
-83.7378
-52.1169
-17.6836
-61.4292
-51.8863
-39.2814
-24.4571
-8.30012
-245.269
-206.926
-156.473
-97.3339
-33.0166
-166.469
-140.531
-106.333
-66.176
-22.4532
-477.278
-402.175
-303.752
-188.775
-64.0033
-388.518
-327.606
-247.597
-153.953
-52.2107
-845.244
-710.983
-536.072
-332.735
-112.739
-771.967
-649.775
-490.221
-304.407
-103.162
-1306.49
-1096.21
-824.604
-510.987
-173.001
-1257.09
-1055.66
-794.67
-492.655
-166.822
-1854.02
-1549.16
-1161.12
-717.862
-242.82
-1712.34
-1432.81
-1075.04
-664.957
-224.93
-2824
-2341.36
-1744.68
-1075.81
-363.894
-3362.46
-2761.21
-2045.22
-1259.88
-427.393
-3824.62
-3094.59
-2275.81
-1405.8
-482.352
-5787.17
-4567.37
-3333.46
-2088.59
-745.794
-6340.54
-4830.88
-3508.92
-2270.47
-888.091
-6801.99
-5050.11
-3650.08
-2414.64
-1006.28
-3518.87
-2915.39
-2170.91
-1337.91
-452.375
-4025.19
-3309.19
-2451.4
-1508.53
-510.749
-4126.25
-3356.16
-2471.25
-1521
-517.558
-3840.02
-3074.08
-2248.16
-1390.24
-480.319
-3306.23
-2578.33
-1871.57
-1175.28
-423.349
-2903.41
-2206.05
-1590.21
-1015.36
-382.271
-20055.5
-14287
-3966.21
-2847.01
-2194.71
-2918.08
-2924.56
-12779.9
-13845.9
-10861.8
-12444.7
-6766.91
-10181.9
-5024.43
-5303.24
-3747.27
-20224.8
-10520.7
-3649.4
-5992.69
-8336.98
-5535.04
-5800.06
-4314.68
-2570.58
-3553.64
-4292.2
-4350.68
-19568.2
-12673.9
-12316.3
-8591
-8274.56
-9064.71
-3714.8
-4497.62
-6119.64
-13656.7
-11181.6
-8721.47
-7300.64
-5597.3
-9099.48
-6070.13
-4430.85
-3109.9
-1449.79
-3473.23
-2850.07
-2110.25
-1300.18
-441.403
-2527.57
-2100.3
-1567.61
-967.295
-327.18
-1946.97
-1615.77
-1203.86
-741.474
-250.444
-2600.66
-2168.86
-1622.65
-1001.9
-338.682
-2586.6
-2140.62
-1592.19
-980.395
-331.37
-8900.6
-6994.69
-5371.42
-4393.8
-3852.78
-9826.09
-8032.06
-6131
-4568.33
-2497.28
-7639.93
-5253.04
-3784.89
-2483.12
-1007.1
-8871.67
-6987.61
-5211.75
-3606.63
-1632.48
-5615.52
-4404.2
-3168.24
-1932.08
-661.151
-7833.5
-5731.76
-4063.62
-2495.11
-883.637
-4284.13
-3428.36
-2490.79
-1518.94
-514.751
-4502.84
-3590.44
-2602.29
-1585.67
-537.634
-3227.59
-2603.86
-1899.99
-1158.8
-391.315
-13616.4
-10319.7
-7989.29
-6396.84
-5179.05
-7964.2
-5920.22
-4310.34
-2804.12
-1153.51
-3100.66
-2477.95
-1803.24
-1105.4
-378.447
-5105.89
-4097.26
-2998.02
-1851.39
-640.648
-6873.64
-5405.38
-3941.87
-2478.44
-904.556
-4694.1
-3755.81
-2748.99
-1704.74
-593.926
-4986.27
-4033.5
-2968.22
-1836.8
-632.739
-3745.41
-3048.9
-2245.76
-1382.18
-470.625
-2242.79
-1830.88
-1347.12
-824.577
-278.391
-3129.77
-2579.07
-1911.7
-1174.94
-397.038
-3704.56
-2996.85
-2193.94
-1343.05
-455.552
-3777.37
-3074.07
-2261.96
-1389.71
-472.347
-13183.5
-10436.7
-8174.92
-6629.71
-5149.25
-8682.59
-6093.5
-4468.46
-3075.77
-1429.13
-9146.38
-7158.87
-5280.11
-3647.94
-1629.53
-6708.49
-5032.31
-3676.68
-2388.96
-922.391
-6846.97
-5404.26
-3952.11
-2491.69
-906.663
-7074.28
-5304.8
-3874.15
-2512.08
-959.999
-3190.62
-2577.42
-1893.9
-1170.34
-402.656
-3948.47
-3244.74
-2401.95
-1476.98
-499.847
-5248.21
-4231.25
-3103.47
-1915.28
-658.122
-372.255
-1083.22
-1772.43
-2464.79
-3150.23
-3808.97
-2964.93
-7910.53
-7373.78
-2846.7
-9947.78
-8419.58
-9736.83
-10730.1
-2721.91
-1746
-6338.85
-3526.83
-11732.1
-8558.34
437.023
-2382.57
-6524.4
-5975.13
-2262.54
-8353.71
-6732.16
-8040.94
-8949.88
-2248.91
-987.585
-5472.49
-1718.83
-9494.02
-5072.51
2081.93
-1704.28
-4851.28
-4401.76
-1612.18
-6444.96
-3805.08
-6334.42
-6851.95
-1668.7
-907.811
-3804.47
-1831.52
-7345.18
-1709.76
2239.85
-1212.67
-3641.48
-3340.21
-1181.51
-4757.84
-2096.45
-5075.2
-5804.92
-1223.83
-970.873
-2731.55
-1893.87
-6276.13
-94.7276
1690.29
-947.246
-2997.39
-2777.77
-960.042
-3668.88
-1651.29
-4410.43
-5512.21
-939.001
-1080.77
-1888.79
-1849.48
-5376.75
101.198
294.367
-814.724
-2595.84
-2488.44
-846.564
-3317.21
-1974.46
-3987.24
-5205.91
-699.901
-849.603
-1483.91
-1793.72
-5311.37
-921.892
-528.418
-1404.08
-3411.92
-5258.68
-2045.82
-5491.51
-9668.6
-7620.43
-10929
-948.08
-604.369
-3746.46
-2092.13
-943.588
-8918.93
-4399.01
-1294.53
-3150.75
-4563.94
-1756.79
-5017.95
-8625.06
-6784.88
-9146.35
-961.053
-505.437
-3845.17
-1912.82
-115.729
-8615.33
-3105.48
-1115.21
-2722.52
-3646.88
-1377.13
-4479.84
-7474.48
-5637.25
-7802.13
-829.191
-577.761
-3186.71
-1955.01
-362.333
-6683.56
-2864.74
-933.25
-2388.95
-2922.13
-1079.02
-4065.45
-6543.86
-4869.24
-6862.72
-733.28
-570.797
-2844.63
-1977.96
-254.475
-5994.2
-2791.96
-819.326
-2099.31
-2517.74
-914.264
-3582.87
-5831.27
-4325.24
-6380.17
-665.265
-622.635
-2497.36
-2121.17
-442.954
-5600.28
-2820.2
-745.424
-1833.97
-2286.81
-822.322
-3248.7
-5705.03
-3934.84
-6090.46
-680.398
-731.093
-2181.94
-2015.56
-721.073
-5712.27
-3159.25
6790.65
8576.35
17624.8
25890.3
26426.7
45439.8
20153.9
51162.9
16324.7
35815.1
24443.4
37175.3
21810.7
28832.4
8265.07
9410.74
16993.6
19506.4
21694.8
21542
16967.8
20842.8
24875.7
22266.5
5694.7
4415.25
6968.46
4786.17
14383.9
11679.8
24435.9
17920.2
18796.5
19673.3
21161.2
20594.9
7751.63
5879.04
44109.1
59064.5
28614.5
35099.5
58754.4
76361
30457
34893
32985
46584.3
28947.9
38274
17114.7
27409.8
3196.99
1106.58
3260.1
1197.89
10173
4139.44
13860.8
5148.56
10062.6
3828.47
10414.2
3362.16
17628.8
5645.8
22719.5
7715.8
26811.7
13516.8
24569.7
14549.1
24771.3
16054
21834.2
16212.3
19668.2
11752.3
19762.5
10268.2
25393.6
16057.4
25480.5
16162.8
23105.5
17058.9
23394.4
17077.6
21216
13428.1
21974.5
13725.8
20263.7
8948.9
9560.67
11872.4
20322.1
9839.98
8475.26
12217.9
21443
8854.72
10734
11852.6
22518.2
9051.65
11623.3
12324.7
4119.95
4473.12
1440.71
2881.68
12625.5
13401.6
5021.12
9266.4
16246.9
17862.7
8249.54
14197.6
12242.6
339.56
14536.1
18712.9
10602
-36.4447
6910.99
13435.1
22073.7
16643.1
11059
13761
12498.5
11196.1
17772.7
3709.91
2930.79
2128.22
2119.17
11385.7
9255.81
7203.83
6755.97
13972.2
11235.6
9298.79
8223.48
5516.99
7227.88
11739.4
12373.6
15073.7
13609.5
17116
14548.8
12479.5
10515.1
9431.1
9384.67
12611.1
9145.89
11788.7
7824.11
10500.6
6612.27
12854.1
8141.18
10636.3
4006.73
9358.17
9581.46
12977.5
16271.5
14366.3
20424.1
7624.28
7926.36
9559.41
1958.5
8424.09
15677.6
8026.99
16965.3
14266.9
25338.1
14519.8
27066.8
6590.71
13793.8
6065.91
14856.7
9239.25
6478.96
13163.6
4830.99
9161.04
702.153
11296.3
-197.598
8999.18
10120
13845.1
6202.87
7549.05
12068.7
12360
8230.86
2165.56
1851.94
1560.59
1625.68
1447.35
1235.96
7166.42
5414.83
4352.75
4817.76
3536.49
2843.51
8295.23
6642.02
5902.49
5675.8
4212.19
3794
5981.55
4811.37
4518.28
10449
7123.66
5646.29
10392.4
6889.19
5170.72
10795.7
7766.05
6403.32
7488.84
4465.2
3236.81
14964.5
11864
9551.31
10115.7
7696.13
5801.37
9542.43
6705.92
4774.08
8472.91
5530.87
3745.36
9465.02
4906.59
2430.05
11054.9
14818.9
8885.75
11319.1
12329.3
17876.7
11144.1
15931.7
54.9594
609.275
-425.408
94.3066
3031.69
3387.7
1346.27
833.893
855.069
2530.92
9764.45
14045.7
6647.02
3878.63
10643.5
10577.8
16772.8
18489.6
-542.4
-4306.95
7942.81
7436.04
7455.29
5721.77
896.25
484.604
627.08
297.876
2060.91
170.931
-158.354
-720.465
9287
2229.68
6473.83
1655.94
9281.93
2769.54
11168.4
3450.52
9481.23
12216
8680.86
11856.2
15508
15965.9
14706.7
15026.8
5769.33
9150.82
6706.85
9126.9
9155.66
11383
10032.1
11435.1
15293.1
14706.3
15970.3
14705.3
5785.12
8815.43
6234.56
8911.62
-337.361
934.6
6722.31
3641.55
-815.449
561.979
6229.64
3195.67
92.1883
1191.61
6839.72
3972.49
472.64
1407.04
6811.12
4064.79
-634.786
-715.001
127.613
-36.9841
-2780.61
-2743.31
-264.07
-471.094
-649.166
-1895.6
1328.16
635.651
-10031.3
-9980.44
-5325.42
-4108.86
-632.46
-10824.5
-10545.1
-4012.55
-5893.8
-1033.3
10901.6
8271.05
6878.85
5998.6
3129.99
-670.487
-560.061
-96.6341
-47.8949
-2232.93
-1981.48
-269.285
-126.73
-2295.74
-2513.91
295.192
411.241
-5006.98
-1915.95
-7601.46
-4312.55
-3228.54
-2191.84
-3652.72
-2901.95
-6.23069
624.654
4001.8
2480.47
1231.54
-731.444
941.395
-616.754
1259.72
91.6546
1222.35
1298.41
5131.1
4526.17
9680.22
5757.9
8282.77
8010.62
12500.4
9926.64
7162.7
4056.44
3524.65
3344.05
11402.5
4980.78
12500.9
5567.4
13929.3
10149.3
14836.8
10921.9
8727.16
3285.22
9742.91
3800.46
5063.13
3682.56
3194.07
4595.65
3143.82
3326.93
2672.85
4241.8
5887.36
3575.18
3618.64
5286.77
7245.56
3869.03
4759.33
5426.02
-497.017
-471.534
-508.627
-59.8991
-176.255
-185.936
-1881.37
-1836.5
-1767.18
-201.405
-505.909
-490.012
-2493.43
-2519.04
-2459.14
259.777
-511.622
-650.444
-836.727
-688.242
-393.977
-2732.44
-2671.01
-2396.26
-2143.67
-2283.05
-2177.02
-2678.28
-2639.18
-2469.53
739.244
-231.573
-294.986
3586.37
2046.37
1137.1
-452.384
-1248.85
-1652.68
-518.08
-1445.95
-1821.42
-255.645
-1197.41
-1444.83
1391.33
-298.815
-487.256
-16.6414
-17.0035
-16.8542
-24.5324
-186.494
-87.2754
-62.2763
-49.1432
-5.68881
-33.4651
-86.9914
-114.481
-311.91
-162.169
-170.104
-149.215
172.335
7.16698
-127.024
-212.133
-86.536
-109.526
-130.84
-128.968
12.3596
-57.2149
-46.8006
-41.2512
188.995
28.6546
-50.3995
-79.041
731.331
174.61
5.55424
-90.6875
1083.21
265.129
68.6772
-176.99
489.148
86.9059
-56.699
-171.419
881.498
202.906
76.3181
-145.919
784.077
200.182
-20.7695
-136.729
1216.52