/*--------------------------------*- C++ -*----------------------------------*\
  =========                 |
  \\      /  F ield         | OpenFOAM: The Open Source CFD Toolbox
   \\    /   O peration     | Website:  https://openfoam.org
    \\  /    A nd           | Version:  11
     \\/     M anipulation  |
\*---------------------------------------------------------------------------*/
FoamFile
{
    format      ascii;
    class       volScalarField;
    location    "1.1";
    object      gradTz;
}
// * * * * * * * * * * * * * * * * * * * * * * * * * * * * * * * * * * * * * //

dimensions      [0 -1 0 1 0 0 0];

internalField   nonuniform List<scalar> 
5712
(
8240.2
27002.3
6576.54
27663.6
4891.17
28458.2
7621.08
43372.2
9347.25
59497.6
9338.35
43631.4
9067.21
36380.9
9430.88
32602
5700.45
3615.42
15280.2
9165.79
5524.59
2999.97
16484.2
8185.26
6352.95
4738.77
20306.9
14624.5
4809.93
3597.17
19955.3
14815.8
11318
4834.17
9857.37
4456.05
4642.86
10706.8
38092.3
10215.3
13678.6
4445.49
48551.7
13013.3
12589
4115.84
27521.6
8470.78
14145.8
4823.95
24212.2
7643.9
7866.39
3900.97
10669
4231.05
8534.69
4592.96
10360.9
4059.13
10565.2
6073.32
8928.91
3968.44
12789.1
4665.32
4351.9
1539.89
14629.7
10365.3
8843.44
6556.6
15545.7
12840.1
8381.03
7229.76
8689.05
6067.83
12698.6
8815.07
5670.24
4194.32
2679.83
2203.91
5251.12
4516.15
2484.43
2424.73
5635.86
3786.42
2723
1757.3
7986.42
4413.62
6180.4
7297.74
11273.3
8070.07
9231.36
12711.4
5133.97
2482.04
3549.78
4102.65
2428.78
1037.56
1441.93
1481.22
10929.9
19454.1
7309.77
21592.4
12623.9
18944.8
8903.23
22411.1
14093
16981.4
11273.7
21555.9
14931.1
16702.5
12211.5
12036.4
12937.2
16798.1
16675.2
17415.1
18422.4
26088
13690.1
11431
10541.9
11949.8
18098.6
22748.4
20525.7
26239.5
25559.8
20833.3
19479.1
25781.3
24914.8
17965.7
17709.9
23999.3
23862.2
12451
10021.5
12679.5
11428.3
14386.2
13463.5
15961.3
15831.6
21734.3
22805.2
11540.7
10396.8
11872.6
12188.7
12835.3
14445.7
14720.9
17337.6
19064.2
22942.1
9775.25
7718.86
6533.6
8126.07
12423.1
14727.2
8442.08
13096.8
5836.95
7441.86
8920.49
7444.62
1664.88
5289.83
677.572
1778.5
4205.73
8626.01
1373.72
2844.51
1009.04
4686.75
384.941
1549.27
5900.38
5942.1
6758.3
4389.29
9511.89
7781.7
11205.4
8025.89
1582.65
3226.47
3359.65
2027.95
1718.38
2200.43
2425.22
1838.52
16598.4
10198.1
3269.69
18670.9
10863.4
3581.87
15947.4
10093.6
3460.13
18297.9
10858.9
3580.32
14647.4
9291.66
3084.36
17739.7
10852.6
3644.11
6980.91
4090.35
1212.04
9522.39
6368.53
2192.65
11780.2
8116.73
2801.99
13898.3
9121.48
3051.48
17475.6
11070.1
3859.11
8023.72
4833.26
1642.73
9338.79
6805.59
2595.76
11450.6
8452.63
3144.61
14188.9
10022
3626.54
17727.9
11287.7
4048.97
274.586
2048.48
2850.65
4160.23
2372.2
2680.27
5896.33
5557.07
594.706
969.752
634.339
1008.59
450.195
1340.26
824.739
1761.45
3065.9
1515.32
3961.94
2322.22
2051.97
3531.9
3354.33
520.997
6465.63
1260.92
-2427.45
112.073
1487.28
850.338
832.796
516.845
9214.5
3903.59
2489.99
1441.64
9367.19
4035.27
3148.08
1819.99
9266.51
4310.55
4471.72
2896.81
3086.88
2054.79
1137.32
1100.04
12998.6
11421.2
5997.92
6162.26
14618.6
13604.4
7113.23
7099.6
5048.73
5139.73
10696.6
8759.93
3398.85
3582.79
1644.11
2004.9
4221.28
4186.03
2069.47
2293.42
2758.63
3038.49
1288.71
1806.63
4258.3
2690.95
4165.79
2634.84
6822.65
3592.29
6331.36
3706.13
2376.03
1858.7
2543.28
1633.27
1080.93
1017.26
1512.21
884.004
10630.1
6741.03
4929.5
4598.26
10626.3
7026.84
4938.81
4584.64
11190.6
7579.11
5010.86
4513.63
14280.7
16147.2
12435.5
7862.93
3969.66
15313.8
13409.8
11784.6
9144.71
5178.06
14281.6
12288.1
9333.91
6733.45
3704.34
5119.28
4116.79
4438.2
4598.14
5484.85
4221.86
4571.92
4640.33
6082.35
4554.69
4766.73
4753.9
11540.2
8261.54
10085.1
6958.37
7419.2
5789.97
6414.79
5174.34
4528.19
4856.3
9623.2
8414.35
8012.97
6906.05
6386.05
5613.16
5137.33
4825.78
3511.32
4599.52
7135.16
4871.79
4673.31
2913.18
9810.43
7584.75
6703.36
5499.06
3571.97
2169.31
5250.52
3808.26
4552.04
2185.84
1493.66
835.28
5055.9
3711.66
1580.9
1325.11
3731.43
1642.64
1322.54
661.347
2664.21
2318.06
2014.29
2810.56
3768.84
3341.63
2572.74
3558.9
2727.72
1641.61
1477.96
1926.53
696.61
300.458
-24.3685
250.636
2728.43
1149
339.409
2954.19
796.916
214.419
2885.81
1291.79
397.402
3022.31
853.881
241.046
2947.28
1402.54
377.05
3095.47
911.479
223.571
5312.71
2887.13
753.068
4284.88
2183.03
577.861
3715.82
1841
524.325
3265.89
1553.53
368.315
3192.49
934.856
163.893
6430.32
3425.97
1015.59
5227.7
2667.64
775.399
4294.82
2153.38
641.356
3623.75
1607.87
422.991
3482.46
898.992
228.416
1408.7
476.443
115.2
-54.8836
586.885
206.378
60.0922
-5.21758
1478.98
512.66
144.231
-22.1614
731.394
273.538
125.276
53.7814
1565.66
556.287
199.351
34.8443
1197.42
488.386
154.151
25.8102
837.515
401.963
82.0956
-33.6981
682.295
386.168
170.469
78.5493
1232.25
487.962
124.199
-76.6811
1020.53
396.538
155.914
-62.3307
1498.01
536.331
173.852
-26.3819
1318.51
470.037
180.898
-98.2474
927.553
413.474
128.695
-30.2578
740.038
321.185
147.753
2.51195
607.841
319.099
151.137
74.2737
457.333
239.13
134.559
64.0647
1758.17
576.435
133.377
-119.752
1672.93
525.838
184.381
-157.058
1750.16
579.037
140.834
-115.313
1622.6
509.808
185.948
-154.05
1707.66
572.194
186.06
-65.9572
1521.57
479.408
209.686
-115.66
1486.05
517.042
225.211
34.8254
1664.93
528.759
275.673
-130.502
1296.28
449.302
212.665
-18.8472
1265.94
364.365
154.522
-93.6379
490.359
131.186
42.2256
-12.7393
1324.96
388.816
164.036
-88.1697
518.451
141.986
49.7895
-6.23392
1375.44
415.361
187.827
-72.4322
541.092
154.161
58.3316
0.872894
1252.25
388.263
205.517
-50.0483
535.296
158.307
74.4543
13.2946
1148.6
377.392
206.443
-17.8794
487.956
163.296
93.3193
28.5479
756.365
272.407
117.34
-8.21385
437.426
187.067
94.2426
42.1595
903.28
297.585
144.363
-17.6471
460.034
176.043
95.6973
36.6635
576.448
238.722
107.573
12.4143
362.518
176.7
88.3783
46.7075
365.396
190.125
106.689
52.9613
267.026
155.067
87.8228
55.1105
-3.97174
1.88266
1.51789
0.833152
0.508177
-0.0513252
1.2802
0.848659
0.450562
0.272474
4.5398
5.49362
3.13462
1.60045
0.957651
9.24132
5.39511
2.73153
1.35148
0.801541
12.7652
9.55916
5.04974
2.5294
1.50647
32.4968
17.6859
8.66859
4.25223
2.51933
35.9751
19.9328
9.87816
4.8864
2.91129
51.7804
25.8922
12.4742
6.13699
3.66045
18.7578
13.4933
7.01851
3.51253
2.09855
20.4277
12.7467
6.45113
3.21123
1.91665
14.0139
10.9817
5.73082
2.85866
1.70167
26.2107
13.8683
6.63713
3.23354
1.91061
23.3724
15.5966
8.07451
4.05278
2.42828
27.1025
14.9528
7.41926
3.68213
2.20033
40.8841
20.7121
10.0205
4.94029
2.95031
34.2581
17.0731
8.24653
4.06884
2.43211
-8.96978
0.891909
1.11194
0.637019
0.39199
-5.13119
0.241766
0.41953
0.243161
0.149647
-3.3728
3.20344
2.11939
1.10847
0.666221
-3.08936
1.08642
0.782898
0.4117
0.247124
3.23482
5.69166
3.1783
1.6046
0.955595
4.86391
3.90939
1.96348
0.956844
0.56264
18.4862
11.2073
5.47884
2.6623
1.56453
12.9212
7.31554
3.47102
1.66939
0.976861
33.665
15.181
6.93276
3.30505
1.93342
2385.23
5419.27
2480.47
5405.71
2790.91
5406.69
3294.49
5600.21
3369.08
5689
1433.13
2048.23
2265.37
3416.64
786.561
1031.47
262.9
332.32
12136.9
2923.75
676.964
153.017
38.5975
3334.67
903.663
242.098
55.6494
12.3064
11913.2
2849.63
659.732
147.994
37.6279
3400.64
1006.21
250.016
58.7406
14.7974
11229.6
2672.24
617.3
138.476
35.2911
3300.33
970.522
240.406
56.1966
14.2105
10105
2388.51
551.124
123.729
31.5927
3184.12
916.549
224.257
51.9909
13.0876
8289.1
1953.32
451.782
101.738
26.0561
2966.79
832.219
201.695
46.523
11.6913
3782.95
934.293
220.455
50.1643
12.9137
1436.43
409.377
98.6349
22.3968
5.62209
5728.82
1393.93
325.954
73.7057
18.9128
2117.57
595.478
144.467
33.3184
8.43306
2195.74
546.729
129.71
29.6868
7.66575
805.345
238.251
57.2103
12.9944
3.29143
752.104
186.47
44.3872
10.2008
2.63708
311.376
85.1983
19.2105
5.3531
1.08433
-487.926
99.4688
4836.11
-1208.37
792.377
849.017
2471.59
3176.95
2011.28
3789.96
3259.73
5032.53
4001.09
4959.83
2056.15
2762.61
2158.31
2562.51
1119.44
1164.01
2244.87
1528.49
690.962
-112.244
-361.806
-424.521
73.6795
14153.7
4306.09
5025.08
3622.59
386.319
491.59
3391.83
-640.542
-149.874
-392.633
-253.664
7697.6
4266.95
1953.05
1412.66
3772.83
2291.32
834.876
1513.37
-831.733
-300.43
1018.66
884.547
8937.37
4209.16
5647.56
2934.52
3978.41
4987.44
1741.35
-331.543
1285.71
1491.77
1134.34
908.218
748.63
511.599
1159.7
890.26
660.358
440.515
180.143
599.81
488.1
359.515
221.257
75.1674
-100.144
-83.3059
-61.8004
-37.7019
-12.6379
-321.985
-267.442
-198.636
-121.577
-40.8318
-378.34
-314.823
-234.308
-143.677
-48.3075
66.1073
56.9793
45.3986
30.2062
10.8059
9734.06
7756.77
5986.41
4789.32
3802.06
3448.11
2693.68
2185.02
1588.92
744.243
3747.72
2831.85
2151.13
1487.78
678.576
2659.25
1946.64
1485.02
1011.39
389.95
359.952
263.931
250.83
188.646
77.6706
474.218
430.544
353.272
239.448
87.9537
2768.97
2179.78
1596.05
1024.58
389.493
-310.823
-84.0251
19.0589
50.3083
26.0761
-99.1639
-46.6474
-4.33693
15.8112
10.433
-225.308
-92.8296
-8.05895
24.9455
15.1287
-235.407
-198.079
-145.061
-86.0501
-27.8685
5399.65
4483.64
3527.08
2865.78
2283.4
3214.05
2429.82
1846.24
1259.17
545.561
1696.15
1404.87
1073.61
697.003
254.149
1205.65
978.896
732.689
466.168
166.371
3084.34
2407.92
1748.74
1098.82
400.361
1974.82
1610.35
1202.84
758.661
264.811
714.372
578.633
429.413
269.213
93.8971
1309.4
1065.03
787.157
487.83
167.189
-714.355
-569.31
-405.704
-240.036
-78.9033
-264.31
-214.45
-153.47
-89.8512
-29.0713
879.313
717.517
536.036
337.972
118.31
768.397
630.35
472.036
296.962
103.148
5578.46
3834.78
3010.46
2441.09
1843.61
3122.53
2329.73
1697.21
1126.08
469.657
4021.9
3116.53
2332.86
1638.79
723.891
2286.61
1786.31
1315.03
861.781
346.681
3311.83
2624.51
1923.62
1208.18
430.316
3724.65
2692.98
2009.7
1354.47
523.732
1494.55
1207.78
889.842
552.032
190.077
-294.847
-243.033
-177.559
-106.315
-35.0255
1101.51
895.484
669.644
424.381
149.498
-32943.2
-53215.3
-27415.2
-42997.8
-28984
-59485.8
-34591
-75627.9
-21043.7
-14585.7
-23296.9
-14767.8
-19249
-12526.7
-23458.7
-12644.1
-27645.3
-21152.1
-39738.3
-29001.4
-23807.6
-19277
-33105.8
-25180.1
-18865.7
-19569.7
-15612.9
-15272.9
-18651.4
-17252.4
-44473.4
-12303.6
-17271.8
-6567.76
-53860.7
-15061
-15423.2
-5943.5
-33446.7
-10542.7
-17690.4
-6857.49
-29994.6
-9283.41
-14650.2
-5945.75
-18361.8
-6696.98
-13959.6
-6194.65
-15930.3
-5816.8
-14427.6
-7106.4
-12737.9
-5114.14
-16044.8
-5713.96
-5615.52
-1986.57
-12218.8
-8481.69
-10536.7
-6670.82
-10615.8
-8724.49
-9172.4
-6665.75
-10816.7
-6460.02
-12765.5
-8382.1
-7259.97
-4514.22
-3952.46
-2553.01
-6279.4
-4435.84
-3372.16
-2487.58
-7403.31
-4237.45
-4085.91
-2189.46
-9623.52
-4930.88
-6485.9
-7333.22
-12322.1
-8346.05
-9204.81
-12468.9
-6489.21
-2932.61
-3896.16
-4207.61
-3474.22
-1407.68
-1772.91
-1598.51
-14720.7
-18220.6
-8392.41
-20790.8
-15305.6
-17381.1
-9650.37
-21231.9
-15448.6
-15759.3
-11493.2
-20136
-10377.7
-8312.94
-11597.5
-12963
-12969.1
-11219
-13253.3
-15667.5
-17150.1
-24319.6
-7942.5
-8477.4
-9367.24
-11292.7
-17219.4
-17486.5
-12261
-22305
-17280.7
-16216.1
-12057.2
-21978.7
-17230.2
-14341.5
-11327.8
-20522.8
-17097.1
-9145.39
-7300.6
-9878.15
-8022.44
-11200.5
-9270.93
-12497.6
-10806.7
-18658.8
-17217.8
-8489.65
-7481.49
-8997.61
-8244.39
-10170.6
-9980.91
-12303.4
-12635.3
-17008.3
-17946.6
-7955.06
-6352.28
-5861.78
-7344.98
-9449.68
-12454.8
-7159.36
-11530.7
-5555.2
-7004.61
-7917.55
-6497.65
-1452.88
-4895.03
-598.947
-1577.19
-3639.15
-7886.95
-1050.82
-2387.24
-987.993
-4499.16
-444.112
-1480.74
-5757.51
-5641.54
-6606.16
-4115.33
-8892.16
-6993.9
-10689.7
-7197.14
-1599.17
-3119.29
-3322.99
-1923.16
-1793.47
-2178.24
-2437.41
-1803.24
-7492.02
-2576.65
-10168.4
-3459.55
-7664.16
-2698
-10413.7
-3726.27
-7624.82
-2661.66
-10993.2
-4205
-4401.63
-1301.77
-5660
-2134.53
-6579.91
-2522.95
-8026.7
-3007.9
-11647.5
-4597.34
-5427.79
-1737.96
-5527.88
-2594.41
-6816.46
-3097.29
-9041.42
-3848.34
-12223.4
-4601.95
-7318.21
-6803.98
-5794.18
-5583.66
-12244.8
-9407.52
-10120.6
-8382.47
-4730.24
-3824.18
-1975.48
-1350.99
-4551.66
-4115.25
-1926.1
-1875.87
-3762.76
-5326.7
-4294.17
-5710.65
-4244.85
-3140.72
-4177.09
-1200.57
-8187.95
-2559.19
2012.27
-362.007
-1622.58
-982.843
-439.614
-125.167
-2411.04
-1460.46
-939.069
-486.854
-2646.39
-1580.86
-1483.09
-639.469
-3052.01
-1928.6
-2238.46
-1058.37
-1784.44
-524.355
-61.1432
470.174
-5890.56
-6196.05
-4725.31
-4318.45
-8121.18
-8082.44
-6848.18
-5748.74
-3078.43
-3200.17
-4273.91
-4692.76
-3070.68
-2614.75
-1540.82
-1357.22
-4559.25
-3609.04
-2471.36
-1981.52
-1859.83
-1862.85
-707.545
-933.128
-1947.21
-1159.2
-2473.19
-1513.15
-2718.87
-1790.44
-3617.88
-2333.76
-988.548
-560.206
-1375.12
-689.976
-32.0949
179.44
-568.513
-29.3976
-3271.02
-3782.85
-2371.12
-3192.42
-3301.46
-3886.64
-2430.6
-3190.88
-3609.41
-3773
-2592.73
-3061.5
-3618.57
-5886.9
-2888.21
-2179.69
-1794.44
-8538.97
-5908.64
-4948.31
-4413.94
-3579.76
-6897.01
-5518.6
-4302.53
-3532.46
-2247.38
-4125.49
-3834.46
-4568.42
-6835.09
-4054.58
-3573.46
-4425.13
-6566.39
-3972.17
-3573.29
-4142.49
-6140.74
-8019.21
-6128.04
-6801.29
-5083.66
-5417.47
-4156.52
-4818.22
-4135.31
-3917.53
-5690.61
-6491.41
-6043.46
-5142.95
-4962.49
-4136.74
-4113.15
-3635.71
-3993.1
-2634.12
-4840.93
-4252.48
-3050.75
-3053.04
-1420.85
-6441.52
-5544.63
-5045.21
-3881.77
-2164.87
-901.83
-3095.09
-2347.42
-3536.38
-1304.65
-764.068
-165.325
-4167.59
-2838.02
-1015.71
-695.891
-2740.18
-854.324
-531.213
-30.6665
-1618.01
-1457.83
-1392.2
-2438.63
-2377.23
-2398.02
-1899.07
-3310.04
-1881.1
-1038.63
-860.897
-1552.91
57.6132
233.588
639.922
155.228
-2673.15
-790.798
-4499.83
-403.751
-2581.92
-879.383
-4413.04
-426.374
-2174.22
-603.858
-4033.48
-301.848
-3462.92
-872.33
-2916.82
-748.951
-2737.8
-848.605
-2414.86
-495.438
-3805.57
-442.78
-4500.48
-1018.73
-3714.84
-689.605
-3262.58
-663.696
-3071.89
-465.629
-3999.11
-491.885
-627.582
-180.547
20.1829
134.927
-228.27
-62.9942
3.1137
37.5732
-640.759
-172.384
17.3535
116.834
-206.442
-38.2166
-18.3079
-0.883789
-680.108
-165.161
-5.05347
78.71
-203.097
20.9769
119.018
129.924
177.439
168.869
236.621
212.146
496.391
311.999
217.245
132.267
-404.728
-49.1784
124.882
230.448
-323.539
-0.772566
72.7181
212.689
-717.731
-157.773
31.36
158.529
-565.646
-74.2264
42.8312
262.185
-86.1767
69.9904
143.443
187.115
-90.7243
70.1703
84.9022
144.687
251.207
196.216
146.751
97.8093
169.405
150.746
102.826
86.1503
-925.437
-259.216
18.9147
227.248
-1080.16
-273.387
-74.9801
271.759
-900.668
-241.259
25.9161
232.59
-1045.65
-258.701
-73.9058
270.441
-857.549
-212.626
-12.4875
182.89
-965.633
-230.709
-97.392
234.521
-609.095
-121.378
-25.7162
99.0713
-1018.83
-223.337
-127.329
285.248
-566.105
-82.7018
-7.15984
183.474
-954.204
-198.645
-83.2777
178.216
-405.308
-73.9936
-9.84035
40.4621
-905.587
-182.609
-75.5555
179.674
-390.531
-69.0097
-10.2432
38.0796
-802.514
-149.294
-78.3408
171.386
-342.576
-54.8699
-5.45326
39.5181
-680.855
-117.659
-92.9841
147.869
-291.081
-40.3893
-11.5627
34.801
-534.08
-70.7004
-66.4198
122.483
-173.707
-6.65896
-11.293
31.6319
-292.362
4.81563
48.0916
130.996
-6.355
65.5351
49.784
57.4267
-449.668
-47.4213
-4.81503
127.286
-65.7543
34.6058
19.2784
44.4517
-90.4715
66.7672
78.8276
119.765
65.4046
95.1795
73.5005
64.3416
128.082
128.957
89.1675
83.1454
154.915
125.467
81.5678
60.3607
27.0291
6.48993
2.00048
0.812526
0.457101
11.0106
3.02222
1.0135
0.429294
0.245322
29.7623
8.75585
3.24779
1.45935
0.852659
15.7879
5.98154
2.53461
1.20211
0.715096
36.0221
12.0088
4.88079
2.28231
1.3515
40.9957
17.2098
7.80812
3.80064
2.2779
47.1585
20.4626
9.38874
4.57212
2.73468
52.0539
25.252
12.0745
5.94866
3.56259
44.4102
15.8274
6.75422
3.21239
1.90755
37.3306
13.8959
6.05001
2.89356
1.72112
39.7879
13.042
5.4123
2.55746
1.51908
31.4114
12.3863
5.63511
2.74749
1.64952
47.7636
18.3963
8.05852
3.85763
2.29271
37.2426
15.6939
7.12297
3.45026
2.05712
43.4874
20.6531
9.80912
4.82156
2.88513
35.9999
17.08
8.09552
3.97427
2.37649
30.6859
5.98591
1.65594
0.640344
0.354064
14.5488
2.47362
0.648811
0.247251
0.136352
31.784
7.24552
2.39269
1.02963
0.593859
14.916
2.91629
0.912311
0.387438
0.223066
31.5792
8.43993
3.17564
1.45109
0.854745
15.0762
4.31027
1.76201
0.839074
0.501831
33.1081
11.2424
4.87055
2.35646
1.41689
19.0037
6.52349
2.90793
1.42267
0.859356
25.4444
11.7338
5.6317
2.81154
1.70463
-2267.64
-4401.75
-2372.52
-4439.24
-2651.19
-4520.73
-2972.8
-4690.67
-2916.13
-4739.87
-1276.58
-1841.14
-1981.61
-2964.67
-702.423
-935.637
-217.047
-286.702
-11593.3
-2793.23
-647.849
-146.821
-37.1718
-3142.11
-861.253
-231.526
-53.3629
-11.8492
-11363.7
-2721.06
-631.426
-142.075
-36.263
-3206.85
-958.478
-238.968
-56.3056
-14.2348
-10688.5
-2551.05
-591.277
-133.113
-34.0634
-3106.75
-922.847
-229.537
-53.8476
-13.6707
-9617.62
-2284.14
-529.222
-119.27
-30.5796
-2981.34
-868.986
-213.849
-49.8058
-12.5942
-7934.63
-1878.59
-436.144
-98.5534
-25.3333
-2765.1
-788.149
-192.427
-44.6252
-11.2688
-3706.18
-914.697
-215.861
-49.1627
-12.6758
-1349.54
-387.949
-93.9113
-21.4174
-5.40111
-5552.22
-1352.91
-316.957
-71.8279
-18.4812
-1974.92
-563.804
-137.795
-31.9582
-8.13034
-2163.88
-537.897
-127.481
-29.1743
-7.5385
-758.562
-225.133
-54.0511
-12.3015
-3.12724
-736.642
-181.807
-43.1283
-9.89588
-2.5582
-285.364
-76.8262
-16.9765
-4.8264
-0.95348
-645.382
-1924.17
-6878.66
75.3424
-7638.36
-3379.67
-7443.59
-3516.65
-13585.7
-7262.93
-15145
-7989.74
-77.875
-256.527
-399.056
-471.935
-405.89
-55.1714
-130.81
-423.496
-648.407
-738.713
-605.908
-150.805
-62.1336
-62.2613
-195.838
-193.568
-277.258
-277.471
-258.726
-262.25
-211.448
-242.558
-103.097
-157.155
820.42
1931.53
3160.17
2247.14
2007.35
870.818
684.346
1855.34
3064.17
3608.88
3005.92
1281.24
-69.9823
-58.8972
-44.4197
-27.5705
-9.34056
-230.741
-194.422
-146.821
-91.2293
-30.9267
-358.81
-302.203
-228.12
-141.703
-48.0296
-424.125
-356.998
-269.319
-167.214
-56.6622
-365.036
-307.48
-232.078
-144.121
-48.8377
-53.1003
-47.8114
-38.0128
-24.314
-8.32658
-117.4
-98.6523
-74.2887
-46.0553
-15.5932
-380.382
-319.969
-241.229
-149.702
-50.7155
-581.896
-489
-368.331
-228.433
-77.3638
-661.977
-555.388
-417.704
-258.779
-87.5971
-542.208
-454.203
-341.133
-211.147
-71.4457
-136.568
-115.847
-87.9212
-54.7615
-18.5734
-55.8995
-47.1097
-35.58
-22.1087
-7.4947
-56.0521
-47.2776
-35.7376
-22.2222
-7.53609
-176.307
-148.713
-112.423
-69.9133
-23.711
-174.309
-147.073
-111.218
-69.1812
-23.4659
-249.545
-210.423
-159.024
-98.8686
-33.5265
-249.681
-210.481
-159.023
-98.8456
-33.5147
-232.99
-196.575
-148.628
-92.4309
-31.3466
-235.797
-198.581
-149.876
-93.0807
-31.545
-190.817
-161.324
-122.151
-76.0101
-25.7787
-217.765
-183.041
-137.856
-85.4612
-28.9325
-94.8399
-81.6815
-62.6814
-39.2424
-13.3219
-141.359
-118.984
-89.6344
-55.5217
-18.7779
719.748
590.673
436.442
267.829
90.4591
1683.4
1374.34
1013.17
622.476
210.985
2713.31
2191.35
1609.34
993.164
340.494
1912.06
1537.61
1130.97
701.173
241.267
1738.18
1401.24
1026.1
627.745
203.927
779.446
641.599
477.074
293.465
93.199
601.042
493.755
365.045
224.017
75.6345
1622.8
1328.73
980.921
602.351
203.763
2658.08
2161.78
1590.67
977.624
331.957
3103.8
2507.65
1840.25
1132.81
386.373
2582.37
2083.06
1527.56
940.271
319.701
1110.72
904.155
668.79
414.177
140.903
112.829
294.595
442.727
523.163
466.079
132.903
183.45
479.841
709.368
800.208
659.965
193.653
87.9849
83.482
223.981
217.837
308.478
305.76
291.373
290.219
253.053
249.402
192.531
190.663
-718.145
-1778.72
-2903.15
-1923.6
-1653.48
-507.066
-643.811
-1794.69
-2937.44
-3391.36
-2704.11
-927.839
101.714
85.9427
65.0923
40.5439
13.763
265.318
223.912
169.378
105.394
35.7567
398.514
336.105
254.083
158.021
53.5975
470.751
396.864
299.892
186.453
63.2303
419.88
354.438
268.141
166.839
56.5981
123.81
108.228
84.3072
53.4215
18.2586
165.217
139.439
105.49
65.6493
22.275
431.605
363.704
274.721
170.752
57.8973
637.392
536.463
404.74
251.349
85.1887
718.055
603.447
454.649
282.073
95.5591
591.572
496.58
373.768
231.754
78.4945
175.595
149.247
113.558
70.9037
24.0859
79.3578
67.0933
50.8463
31.6849
10.7583
75.3051
63.6751
48.2615
30.0767
10.2126
201.86
170.495
129.075
80.3652
27.2742
196.344
165.857
125.579
78.1946
26.5387
277.914
234.632
177.552
110.508
37.4967
275.398
232.438
175.836
109.413
37.12
262.681
221.936
168.058
104.647
35.5152
261.267
220.371
166.598
103.609
35.1405
228.762
193.849
147.159
91.7785
31.1682
224.477
189.276
143.025
88.9077
30.1454
176.187
151.179
115.934
72.7287
24.7497
172.167
145.643
110.327
68.6657
23.2883
-627.13
-511.976
-376.504
-230.347
-77.7146
-1545.32
-1257.28
-924.258
-567.06
-192.205
-2479.17
-1990.8
-1455.48
-896.603
-307.727
-1606.45
-1265.83
-914.422
-560.43
-191.995
-1397.24
-1093.36
-776.716
-462.492
-144.584
-426.288
-320.11
-214.56
-118.217
-30.1352
-564.515
-462.899
-341.691
-209.493
-70.713
-1568.39
-1283.01
-946.526
-581.093
-196.596
-2542.83
-2063.3
-1515.26
-930.313
-315.866
-2902.34
-2331.92
-1702.78
-1044.89
-356.036
-2299
-1832.49
-1328.74
-811.341
-274.675
-776.829
-606.957
-431.406
-259.317
-86.6253
-1749.84
-1106.89
-466.592
298.092
564.894
709.927
214.651
-11835
-2357.87
-3666.37
-1708.58
-22.8765
-3844.79
503.99
1962.54
825.9
-6508.86
-3165.89
-951.469
-857.836
-3404.33
-1583.74
-504.395
-1154.45
1499.47
787.059
-687.247
-444.777
-8234.11
-3759.17
-4753.17
-2354.15
-3508.47
-3914.29
-1316.13
775.104
-735.869
-942.274
-612.309
-457.703
-427.498
-380.96
-732.53
-490.438
-324.94
-209.575
-93.1726
-395.764
-313.841
-226.108
-137.49
-46.6249
270.085
229.369
174.381
108.825
36.9755
507.236
426.22
320.69
198.53
67.1335
637.29
535.437
402.934
249.544
84.4131
198.433
171.163
130.926
81.3659
27.3905
-8016.98
-6508.96
-5192.3
-4517.1
-4089.08
-1544.03
-981.212
-859.422
-774.156
-471.976
-2555.23
-1809.72
-1377.17
-1019.87
-538.085
-1099.55
-692.857
-548.674
-419.624
-171.133
-1.49505
6.93145
1.62549
-8.03482
-7.74836
-3114.6
-2441.76
-1778.12
-1136.61
-431.222
460.567
386.986
285.494
170.51
54.968
1678.34
1343.99
972.885
588.717
197.354
736.608
611.733
453.703
277.08
92.6587
-4307.41
-3602.11
-2897.8
-2545.12
-2302.9
-2190.22
-1534.82
-1154.54
-829.685
-408.299
-761.544
-590.103
-440.686
-296.892
-118.388
-695.095
-538.203
-392.827
-252.354
-93.9342
-2774.26
-2163.22
-1576.7
-1000.86
-371.293
-1315.03
-1033.39
-752.547
-472.183
-166.445
-410.117
-315.152
-225.064
-139.701
-49.6042
-982.256
-785.245
-572.98
-353.585
-121.577
1325.58
1094.75
810.809
496.269
166.702
708.099
594.713
445.766
274.195
92.1028
-569.547
-446.659
-325.021
-204.115
-72.6326
-364.266
-281.793
-203.085
-127.264
-45.2602
-4919.82
-3246.33
-2542.6
-2153.77
-1785.01
-2692.7
-1942.09
-1384.4
-920.905
-397.616
-3134.92
-2330.94
-1701.74
-1230.55
-569.467
-1737.58
-1296.06
-924.454
-609.263
-260.4
-2880.74
-2252.4
-1637.01
-1028.4
-369.615
-2740.28
-1825.18
-1338.93
-935.955
-384.124
-1107.45
-876.891
-636.588
-393.338
-136.201
698.717
588.455
442.54
273.112
91.9816
-593.894
-455.491
-328.715
-208.758
-75.9122
-5.36815
4.77104
17.5631
5.13857
-62.6065
-194.028
-23640.6
-20934.4
-19705.4
-22409.3
-17441.3
-13889.5
-15525.1
-11853.3
-20842.9
-18528
-19242.5
-18308.3
-16961.6
-14546.3
-17902.6
-19656.4
-17636.3
-15999.6
-17986.3
-14903.7
-12651.4
-13141.5
-10573.8
-18883.1
-17056.7
-17446.1
-16126
-15189.3
-14156.1
-14800.5
-15631
-14373.1
-12778.3
-13948.8
-12533.4
-10823.4
-11051.8
-9489.18
-15970
-14833.9
-14898.5
-13901.4
-13027.2
-12040.4
-12637.1
-11095.3
-10465.5
-9111.45
-9653.3
-9428.9
-8490.12
-8278.2
-7537.57
-11735.9
-11949.5
-11095.3
-11296.5
-9952.03
-9037.79
-10088.9
-7171.65
-6867.86
-5899.6
-6154.44
-6361.34
-5779.92
-5493.78
-5061.13
-7833.18
-7896.12
-7490.69
-7429.19
-6852.9
-6219.01
-6778.62
-2595.23
-2506.22
-2140.42
-2216.46
-2357.47
-2200.61
-2018.71
-1878.38
-2954.67
-2986.23
-2781.31
-2697.62
-2575.86
-2367.54
-2552.01
-8733.84
-8585.97
-13234
-14263.7
-8175.62
-7252.26
-11611.6
-9449.75
-6503.16
-4563.96
-6478.87
-4599.55
-6485.23
-6262.77
-4755.31
-8657.5
-8214.85
-11825.4
-12878.1
-7624.59
-6883.93
-10300.6
-8839.61
-6435.42
-3861.95
-6340.65
-4137.05
-5795.95
-5619.18
-4604.7
-7828
-7452.25
-10028.1
-10750
-6986.6
-6468.35
-8970.22
-7905.04
-5232.8
-3945.09
-5222.86
-4248.2
-4858.08
-4900.31
-4521.59
-6213.95
-5968.55
-7500.48
-7884.57
-5651.76
-5258.11
-6928.6
-6292.18
-4794.29
-3367.91
-4722.29
-3661.4
-4406.12
-4410.46
-3863.72
-4222.54
-4080.97
-4942.64
-5137.09
-3798.29
-3497.6
-4646.2
-4248.19
-3273.94
-2483.09
-3213.64
-2677.52
-3007.86
-2982.74
-2673.12
-1558.66
-1508.99
-1802.72
-1864.34
-1400.7
-1283.17
-1706.34
-1567.75
-1074.44
-898.178
-1138.44
-1002.39
-1104.26
-1085.12
-966.287
8203.44
26449.3
6541.08
27662
4872.92
28460.7
7616.27
43381.2
9341.63
59510.1
9319.77
43627.4
9028.95
36361.6
9405.4
31903.7
5692.4
3613.54
15281.3
9165.98
5522.81
2999.73
16487.7
8186.51
6313.33
4706.72
19902.5
14352.7
4786.56
3587.32
19972.7
14836.8
11325.3
4826.74
9858.05
4453.44
4637.65
10716.3
38102.8
10216.7
13680.9
4445.46
48563
13015.7
12591.5
4116.45
27536.2
8473.43
14150
4824.58
24231.7
7647.4
7795.96
3866.16
10486.7
4161.89
8535.58
4593.81
10378
4065.63
10564.2
6073.64
8934.55
3971.15
12799.8
4669.39
4354.47
1540.91
14628.6
10364.5
8843.27
6556.39
15544
12838.8
8381.15
7229.55
8689.28
6067.84
12697.8
8814.81
5670.65
4194.33
2679.36
2203.67
5251.77
4516.26
2484.4
2424.67
5636.82
3786.53
2722.72
1757.07
7987.5
4414.31
6180.65
7298.12
11273.2
8070.51
9231.53
12711.9
5135.59
2482.75
3550.01
4102.89
2428.96
1037.68
1441.82
1481.24
10873.9
19454.5
7268.9
21589.1
12626.4
18939.9
8907.78
22407.5
14093.3
16980.3
11274.8
21555.3
14930
16700.1
12211
12037
12938.2
16796
16673.9
17414.2
18422.1
26088.2
13688.3
11430.1
10541.5
11949.9
18099.2
22785.8
20581.5
26255.8
25540.4
20824.2
19472.7
25771
24908.7
17962.4
17705.5
23997.9
23860.2
12449.5
10020.4
12678.4
11427.1
14384.9
13462
15959.4
15829.4
21733.6
22804.1
11539.4
10395.7
11871.7
12187.6
12834.6
14444.6
14720.3
17336.7
19064.3
22941.6
9774.71
7718.59
6533.37
8126.02
12422.1
14726.4
8441.62
13096.3
5836.92
7441.98
8920.25
7444.54
1664.74
5289.81
677.457
1778.45
4205.56
8625.78
1373.69
2844.46
1008.95
4686.82
384.811
1549.24
5900.52
5942.26
6758.58
4389.42
9511.94
7781.77
11205.8
8026.01
1582.67
3226.56
3359.78
2028.01
1718.37
2200.46
2425.28
1838.55
16638
10219.8
3283.1
18684.4
10878.8
3587.05
15942.7
10092.6
3460.17
18294
10857
3580.21
14644.2
9290.22
3084.05
17737.6
10851.1
3643.72
6980.05
4089.79
1211.85
9521.31
6367.78
2192.41
11778.7
8115.74
2801.67
13896.2
9120.24
3051.11
17474.2
11069
3858.71
8022.82
4832.66
1642.51
9337.73
6804.78
2595.45
11449.4
8451.67
3144.25
14187.7
10020.9
3626.14
17727
11286.7
4048.56
280.354
2050.69
2866.01
4164.99
2374.7
2681.42
5904.89
5559.8
577.907
958.278
615.33
993.143
454.512
1339.57
829.209
1760.35
3078.85
1520.75
3966.82
2323.56
2055.61
3540.23
3359.35
525.116
6468.65
1262.98
-2414.62
120.975
1493.38
855.83
843.149
525.093
9228.77
3902.93
2481.19
1436.4
9357.77
4034.72
3145.65
1819.61
9261.09
4309.3
4473.11
2896.33
3091.12
2055.29
1142.53
1101.85
12994.7
11419
5998.92
6162.3
14615.8
13602.5
7113.79
7099.55
5049.78
5139.69
10692.7
8758.01
3401.12
3583.39
1645.94
2005.49
4222.65
4186.4
2070.3
2293.7
2761.21
3039.08
1291.11
1807.33
4258.65
2690.87
4165.64
2634.7
6820.04
3591.46
6329.97
3705.46
2377.89
1859.23
2543.72
1633.49
1083.16
1018.29
1512.84
884.45
10659.1
6743.13
4933.07
4598.34
10617.6
7025.89
4937.19
4584.15
11182.4
7575.46
5008.88
4512.25
14275.3
16143.2
12429.9
7859.13
3968.41
15310.6
13405.6
11779.9
9140.87
5176.49
14279
12285.1
9331.23
6731.49
3703.47
5114.54
4113.59
4435.05
4593.35
5483.34
4221.9
4569.81
4639.37
6080.25
4553.51
4765.68
4753.18
11538.2
8260.27
10082.4
6956.87
7416.64
5788.46
6412.56
5172.95
4527.03
4855.35
9621.49
8413.04
8010.87
6904.57
6384.05
5611.73
5135.74
4824.56
3510.45
4598.58
7133.42
4870.71
4672.73
2912.68
9808.87
7583.72
6702.79
5498.52
3571.48
2168.9
5249.06
3807.31
4551.99
2185.68
1493.91
835.384
5055.81
3711.47
1581.03
1325.15
3731.39
1642.53
1322.85
661.477
2663.85
2317.65
2014.04
2810.14
3767.82
3340.85
2572.2
3558.23
2727.69
1641.49
1477.97
1926.36
696.926
300.6
-24.0771
250.752
2727.38
1149.85
340.281
2955.74
800.695
215.326
2885.24
1292.03
397.46
3021.01
853.09
241.067
2946.61
1402.35
377.041
3094.87
911.113
223.495
5311.91
2886.67
752.925
4284.05
2182.61
577.737
3714.99
1840.62
524.222
3265.11
1553.21
368.228
3191.87
934.603
163.823
6429.42
3425.46
1015.42
5226.76
2667.18
775.253
4293.93
2152.96
641.231
3622.96
1607.52
422.887
3481.81
898.799
228.363
1403.83
474.019
114.055
-55.2148
581.57
204.063
59.2537
-5.48307
1479.12
512.683
144.215
-22.2286
731.399
273.523
125.209
53.7031
1565.48
556.238
199.321
34.7959
1197.2
488.293
154.093
25.7449
837.529
401.94
82.0835
-33.7147
682.796
386.341
170.536
78.5696
1232.2
487.951
124.199
-76.6851
1020.53
396.551
155.923
-62.3139
1497.78
536.268
173.831
-26.4025
1318.34
469.988
180.878
-98.2469
927.709
413.537
128.729
-30.2406
740.169
321.257
147.79
2.53549
608.23
319.26
151.211
74.3037
457.58
239.256
134.625
64.0999
1757.85
575.979
132.615
-120.285
1674.75
526.391
184.274
-157.713
1749.7
578.84
140.78
-115.369
1622.21
509.662
185.948
-154.061
1707.23
572.048
186.014
-65.9843
1521.14
479.268
209.649
-115.668
1485.68
516.901
225.141
34.7708
1664.51
528.63
275.619
-130.509
1296.03
449.218
212.613
-18.895
1269.87
365.804
155.091
-94.3691
492.728
131.953
42.4193
-12.9783
1323.19
388.233
163.844
-88.1199
517.712
141.749
49.6849
-6.21116
1374.92
415.139
187.754
-72.4446
540.832
154.052
58.2819
0.861956
1251.88
388.124
205.457
-50.0595
535.118
158.233
74.4156
13.2739
1148.33
377.296
206.394
-17.8921
487.831
163.243
93.2843
28.5238
756.337
272.417
117.346
-8.20443
437.424
187.069
94.2375
42.1524
903.142
297.55
144.345
-17.6489
459.962
176.01
95.6716
36.643
576.53
238.779
107.605
12.438
362.595
176.746
88.4005
46.7192
365.568
190.226
106.745
52.9977
267.168
155.154
87.8704
55.1404
-4.2999
1.72119
1.44439
0.798681
0.4884
-0.259437
1.1774
0.800924
0.4279
0.259304
4.53068
5.49068
3.13311
1.5996
0.957146
9.2328
5.3919
2.72965
1.35031
0.800735
12.7497
9.55235
5.04583
2.52699
1.5048
32.4699
17.672
8.66004
4.24686