/*--------------------------------*- C++ -*----------------------------------*\
  =========                 |
  \\      /  F ield         | OpenFOAM: The Open Source CFD Toolbox
   \\    /   O peration     | Website:  https://openfoam.org
    \\  /    A nd           | Version:  11
     \\/     M anipulation  |
\*---------------------------------------------------------------------------*/
FoamFile
{
    format      ascii;
    class       volScalarField;
    location    "1.1";
    object      T;
}
// * * * * * * * * * * * * * * * * * * * * * * * * * * * * * * * * * * * * * //

dimensions      [0 0 0 1 0 0 0];

internalField   nonuniform List<scalar> 
5712
(
534.422
552.751
522.765
544.904
506.156
534.228
477.981
510.968
477.748
503.829
503.017
528.692
518.441
540.766
528.631
548.575
496.179
473.523
518.572
485.958
466.159
442.82
488.26
453.556
543.162
551.249
557.779
562.286
531.6
541.606
550.736
557.161
532.263
514.817
507.022
495.359
527.447
543.765
540.103
539.729
497.409
501.997
514.437
513.32
464.45
468.09
547.672
550.107
519.353
526.211
557.764
560.896
556.528
566.283
565.798
570.231
548.629
563.084
561.903
568.645
532.947
556.2
546.739
563.062
556.635
566.985
560.45
568.361
457.071
443.77
465.796
447.03
423.92
412.278
432.643
415.533
495.442
477.627
486.92
473.951
471.88
448.593
473.402
448.379
438.522
417.18
439.932
417.014
501.337
479.389
502.95
479.367
522.048
553.329
508.271
543.423
513.838
548.381
503.73
539.257
527.683
556.112
510.493
545.587
529.455
557.121
510.766
546.534
547.637
530.239
561.379
548.678
536.084
518.89
556.602
542.378
519.143
503.571
548.399
533.463
439.358
401.344
473.119
501.596
538.421
394.995
432.514
465.531
491.892
525.701
401.185
435.74
467.652
496.971
531.111
499.306
472.166
505.12
479.141
493.206
467.93
503.478
477.453
484.048
460.599
501.18
475.723
383.499
368.949
421.386
404.881
452.346
433.485
477.022
455.778
501.468
477.912
388.514
372.798
423.946
409.936
455.706
440.167
483.437
465.184
507.667
487.34
429.653
422.57
428.998
423.107
394.334
373.993
395.006
374.488
460.955
458.313
461.577
456.677
426.881
422.819
426.848
423.179
394.493
375.115
394.571
375.464
458.567
458.101
458.602
458.631
491.17
488.358
516.097
512.421
490.396
484.842
514.521
507.732
490.23
489.002
516.601
514.111
488.954
488.404
515.522
513.268
443.202
421.14
409.753
446.646
422.907
411.111
440.889
418.466
406.609
445.381
420.889
408.481
434.191
411.728
399.747
443.783
417.586
404.237
353.042
341.209
335.19
385.371
368.249
358.926
410.939
389.564
377.644
429.536
405.573
392.711
444.487
415.421
400.273
355.476
341.12
333.733
392.133
373.004
362.217
418.136
394.048
380.117
437.274
408.344
392.11
449.548
416.453
398.587
395.094
385.628
401.041
391.584
428.612
411.895
440.159
420.15
369.935
346.905
371.122
348.739
371.335
349.757
373.143
351.632
372.629
368.772
371.915
366.467
353.24
356.614
395.775
398.4
426.024
428.815
375.769
379.902
375.659
378.031
359.448
362.25
325.043
307.563
330.036
310.489
327.642
308.132
332.453
311.375
331.819
308.964
338.401
313.212
341.928
315.862
343.332
317.275
367.407
357.612
375.074
361.158
393.584
382.575
401.653
386.102
354.024
340.285
346.947
336.979
379.315
363.046
380.909
363.452
406.483
387.926
407.966
388.031
357.858
342.135
359.469
342.701
334.118
310.88
323.654
306.188
327.94
307.518
320.799
304.272
337.737
313.332
325.306
307.371
339.496
314.896
325.921
307.938
309.535
299.869
301.786
295.845
311.746
302.342
302.176
296.583
315.991
307.799
303.191
298.573
347.801
370.585
331.16
318.888
303.308
365.186
343.011
324.84
313.5
300.286
370.325
347.67
329.919
316.301
301.886
292.694
286.803
290.597
285.566
295.212
288.959
291.737
286.685
300.294
293.411
293.997
288.792
354.156
341.274
333.042
321.737
317.58
308.546
306.96
299.2
296.697
291.277
358.063
342.725
336.885
323.488
321.364
310.551
309.561
300.493
298.397
292.341
341.411
323.978
344.731
326.368
363.654
343.251
366.613
344.856
327.574
313.147
324.632
310.869
347.376
327.85
347.954
328.389
368.547
345.736
368.922
346.185
330.109
314.694
330.689
315.173
312.921
301.66
300.011
292.473
311.339
300.023
299.279
291.834
314.24
302.821
300.474
292.765
315.534
303.439
301.251
293.49
281.204
278.503
277.44
278.178
276.096
275.386
283.263
280.136
278.882
279.166
276.91
276.071
287.25
283.502
281.924
280.777
278.013
276.951
328.472
319.601
315.293
311.487
304.908
301.903
300.263
294.98
292.743
291.684
286.921
284.836
282.073
278.676
277.337
328.004
317.171
312.184
311.46
302.994
299.242
300.6
293.82
290.933
291.48
286.099
283.969
281.596
278.269
276.985
293.803
285.288
280.377
277.438
295.007
285.708
280.487
277.426
293.878
285.339
280.426
277.477
295.41
285.893
280.617
277.521
293.859
285.375
280.578
277.629
295.709
286.061
280.835
277.693
296.751
286.525
280.881
277.636
297.53
286.948
281.03
277.69
294.942
285.89
280.834
277.75
293.473
285.531
280.808
277.926
293.532
285.339
280.703
277.811
292.662
285.165
280.679
277.934
296.047
286.37
280.951
277.745
294.106
285.844
280.933
277.984
296.847
286.769
281.117
277.843
294.586
286.11
281.083
278.099
291.857
284.644
280.251
277.521
289.628
283.92
280.088
277.647
291.879
284.667
280.296
277.568
289.82
283.997
280.126
277.681
292.005
284.739
280.401
277.676
290.358
284.201
280.225
277.753
291.899
284.762
280.494
277.817
290.798
284.387
280.348
277.856
291.745
284.793
280.568
277.963
287.899
283.398
279.822
277.86
286.935
283.143
279.725
277.906
288.276
283.531
279.886
277.901
287.341
283.286
279.784
277.938
288.973
283.783
279.983
277.956
288.055
283.545
279.879
277.991
289.837
284.112
280.153
278.053
288.892
283.865
280.018
278.068
290.683
284.488
280.36
278.158
289.631
284.203
280.174
278.156
291.819
285.129
280.631
278.291
290.707
284.86
280.523
278.358
291.312
284.831
280.496
278.22
290.209
284.55
280.35
278.256
292.217
285.384
280.73
278.349
291.137
285.145
280.668
278.45
292.589
285.615
280.86
278.438
291.533
285.4
280.813
278.547
275.546
274.478
273.84
273.492
273.34
275.545
274.48
273.842
273.493
273.341
275.567
274.487
273.844
273.494
273.341
275.573
274.492
273.847
273.495
273.342
275.596
274.498
273.849
273.496
273.343
275.604
274.505
273.853
273.498
273.344
275.64
274.523
273.862
273.502
273.346
275.688
274.548
273.873
273.508
273.35
275.632
274.515
273.857
273.5
273.345
275.668
274.525
273.86
273.501
273.346
275.62
274.507
273.853
273.498
273.344
275.652
274.516
273.856
273.499
273.345
275.663
274.531
273.864
273.503
273.347
275.698
274.539
273.867
273.505
273.348
275.71
274.553
273.875
273.509
273.35
275.739
274.559
273.877
273.509
273.35
275.551
274.477
273.839
273.491
273.34
275.56
274.477
273.839
273.491
273.34
275.568
274.484
273.842
273.493
273.341
275.573
274.482
273.841
273.492
273.34
275.596
274.494
273.847
273.495
273.342
275.597
274.491
273.845
273.494
273.341
275.626
274.505
273.851
273.497
273.343
275.622
274.502
273.85
273.496
273.343
275.642
274.511
273.854
273.498
273.344
514.341
510.181
514.426
510.362
515.072
511.237
517.056
513.33
521.393
517.649
529.018
529.303
526.647
525.621
530.065
530.875
530.406
531.107
561.043
570.416
572.411
572.867
572.966
550.898
567.617
571.77
572.726
572.933
561.249
570.475
572.426
572.87
572.967
551.207
567.714
571.791
572.733
572.934
561.504
570.544
572.443
572.874
572.968
551.65
567.837
571.821
572.74
572.935
562.102
570.686
572.475
572.881
572.969
552.493
568.048
571.869
572.75
572.938
563.18
570.914
572.524
572.892
572.972
553.929
568.372
571.938
572.765
572.941
564.274
571.083
572.554
572.897
572.973
557.223
569.059
572.078
572.793
572.947
563.954
571.037
572.547
572.896
572.973
555.938
568.781
572.022
572.782
572.945
564.4
571.102
572.557
572.898
572.973
557.869
569.215
572.111
572.799
572.949
564.506
571.127
572.563
572.899
572.973
558.039
569.274
572.122
572.801
572.949
409.836
449.298
447.001
405.606
388.029
389.609
391.652
394.7
404.205
408.515
436.956
447.187
445.799
456.778
419.562
424.631
406.213
409.926
398.861
401.108
349.26
331.298
288.682
284.083
285.499
283.629
286.88
344.314
336.032
320.534
323.835
318.841
302.436
310.618
305.834
297.539
300.061
295.987
342.65
316.168
300.758
298.144
305.137
301.825
295.501
293.501
291.115
288.768
295.166
293.267
345.821
324.456
331.776
313.386
306.328
317.549
295.655
289.65
297.81
331.645
317.376
305.628
294.064
281.366
321.045
311.065
300.932
290.593
279.411
286.966
284.64
281.706
278.375
274.818
282.919
281.31
279.242
276.864
274.308
284.181
282.359
280.023
277.343
274.469
282.522
280.985
279.002
276.716
274.258
285.393
283.355
280.758
277.794
274.621
327.943
313.764
302.37
291.602
280.465
320.894
307.805
297.485
287.942
278.275
312.455
303.994
295.289
286.612
277.725
312.084
301.405
292.685
284.676
276.957
308.398
298.66
290.641
283.339
276.442
298.467
293.618
288.05
282.152
276.08
304.717
298.119
291.053
283.898
276.673
300.866
295.151
288.913
282.56
276.194
294.481
290.576
285.928
280.888
275.653
296.466
292.021
286.878
281.42
275.823
293.188
289.567
285.209
280.455
275.506
327.64
314.133
302.959
292.08
280.653
309.567
302.228
294.302
286.112
277.558
297.213
292.762
287.53
281.884
275.999
295.066
291.123
286.396
281.22
275.778
300.838
295.618
289.614
283.193
276.469
298.201
293.641
288.248
282.372
276.178
292.866
289.421
285.208
280.52
275.545
291.15
288.033
284.184
279.882
275.325
289.083
286.351
282.941
279.113
275.062
287.046
284.704
281.745
278.392
274.821
292.537
289.099
284.917
280.305
275.462
290.935
287.843
284.031
279.781
275.288
329.713
316.026
304.626
293.374
281.214
316.036
307.342
298.225
288.79
278.651
321.535
310.735
300.601
290.322
279.281
307.709
301.111
293.701
285.808
277.421
301.968
296.631
290.437
283.742
276.663
310.841
303.364
295.229
286.757
277.803
292.993
289.514
285.266
280.548
275.552
287.81
285.325
282.203
278.674
274.917
294.808
290.944
286.288
281.166
275.762
493.018
537.433
485.572
531.761
459.849
510.992
466.904
516.628
472.682
457.264
508.903
477.606
445.75
429.705
479.719
446.71
511.744
527.902
546.946
554.388
504.571
520.244
542.483
550.644
523.156
493.367
498.663
478.683
508.911
536.226
537.037
538.974
493.753
501.036
511.461
512.515
461.352
467.226
544.554
549.386
515.817
525.322
555.404
560.39
544.171
562.308
561.386
568.773
536.75
559.269
558.017
567.297
521.579
552.625
541.071
561.191
554.566
566.265
560.025
568.204
450.263
441.65
461.239
445.708
419.885
412.065
429.553
415.229
490.542
476.053
479.191
471.336
469.599
447.913
472.765
448.188
436.912
416.993
439.483
416.972
498.909
478.579
502.268
479.132
518.373
552.112
507.101
543.048
508.088
546.52
501.83
538.715
525.842
555.473
509.881
545.376
528.933
556.931
510.586
546.468
527.996
509.005
555.343
542.18
518.459
500.539
551.138
536.8
504.668
489.18
543.996
529.38
439.077
409.549
467.177
495.202
536.415
405.826
433.643
459.267
484.611
523.767
407.213
435.965
464.973
494.498
530.569
482.644
464.411
501.163
483.797
478.495
461.063
500.69
482.747
472.02
455.161
499.964
481.698
397.416
386.675
424.791
412.231
448.883
434.378
472.727
456.426
502.255
484.358
397.519
384.639
426.837
416.696
455.419
444.548
482.98
469.516
508.802
492.715
430.507
425.423
429.345
424.462
397.908
380.288
396.533
377.478
460.696
458.857
461.151
458.015
427.028
423.372
426.889
423.324
395.153
376.392
394.761
375.816
458.429
458.29
458.558
458.672
490.904
488.677
516.142
512.843
489.987
485.939
514.753
509.034
490.071
489.064
516.586
514.223
488.897
488.41
515.509
513.285
453.114
448.146
469.004
462.328
449.839
444.106
467.631
459.73
443.587
437.514
465.736
456
377.496
371.192
402.156
394.968
423.364
415.34
443.908
435.538
465.923
452.798
372.615
365.121
407.136
398.065
432.52
421.209
452.941
438.869
467.821
450.681
388.076
381.253
398.49
389.439
415.527
403.279
435.097
415.689
368.933
349.099
373.083
351.724
368.691
351.271
373.46
353.841
372.206
366.357
371.639
365.481
354.278
357.862
394.644
398.048
423.843
428.168
375.451
379.753
375.448
377.948
360.115
362.449
333.765
315.721
335.55
316.702
335.493
315.677
336.931
316.631
338.736
315.661
341.687
317.443
343.677
318.376
343.905
318.127
370.313
362.094
375.748
363.393
393.026
384.94
400.447
387.157
356.347
343.25
352.488
342.502
379.466
364.118
380.948
363.786
405.734
388.397
407.753
388.185
358.861
343.618
359.759
343.162
337.87
314.514
326.78
308.85
335.173
313.154
326.267
308.488
339.562
315.376
326.929
308.843
340.037
315.547
326.43
308.409
330.343
325.941
313.465
310.051
331.92
327.7
313.252
310.005
334.484
331.074
313.013
310.311
364.076
384.716
347.537
331.934
311.204
382.653
363.579
346.903
330.957
309.853
381.149
359.841
341.144
325.414
307.909
320.898
315.399
305.756
299.515
323.098
317.746
306.139
300.111
326.702
321.583
306.789
300.989
375.164
365.93
356.878
349.217
341.108
335.255
325.799
320.309
306.476
300.843
372.066
359.052
351.861
340.326
334.587
324.894
319.859
311.177
304.722
298.445
348.54
332.647
348.115
330.587
369.868
351.921
369.349
348.942
331.075
316.992
331.421
318.34
348.905
329.744
348.402
328.923
369.724
347.526
369.262
346.682
331.772
316.472
331.184
315.682
316.042
304.696
302.346
294.541
317.014
305.64
303.179
295.404
315.819
304.289
301.723
293.829
316.031
303.884
301.638
293.806
311.073
309.549
289.467
288.553
313.898
312.029
290.214
289.167
317.564
314.442
291.057
288.763
357.915
352.277
342.465
337.867
329.842
326.194
314.735
310.349
290.366
286.656
347.688
342.067
330.518
326.068
316.441
312.885
302.647
299.366
286.211
283.378
298.721
287.906
281.723
278.128
299.211
288.045
281.718
278.065
298.442
287.788
281.679
278.109
299.037
287.941
281.704
278.083
297.891
287.568
281.722
278.207
298.641
287.741
281.753
278.176
298.614
287.624
281.486
277.957
298.182
287.34
281.247
277.807
297.343
287.283
281.616
278.181
295.312
286.641
281.463
278.32
296.921
287.229
281.732
278.359
295.405
286.758
281.573
278.439
297.495
287.235
281.447
278.027
295.171
286.504
281.335
278.24
297.332
287.063
281.287
277.94
294.937
286.33
281.219
278.187
297.807
287.641
281.76
278.295
296.515
287.289
281.763
278.523
297.521
287.535
281.74
278.301
296.355
287.229
281.735
278.52
297.062
287.362
281.738
278.352
296.14
287.134
281.701
278.52
296.222
287.078
281.706
278.441
295.782
286.997
281.682
278.548
295.383
286.818
281.66
278.556
295.275
287.001
281.582
278.88
294.444
286.847
281.557
279.012
295.247
286.972
281.579
278.884
294.431
286.819
281.546
279.007
295.146
286.905
281.534
278.858
294.348
286.757
281.503
278.987
294.911
286.788
281.519
278.85
294.137
286.65
281.464
278.968
294.475
286.612
281.505
278.85
293.703
286.494
281.409
278.943
293.551
286.208
281.274
278.719
292.591
286.057
281.224
278.825
293.963
286.409
281.391
278.787
293.093
286.282
281.326
278.894
293.199
286.015
281.117
278.618
292.185
285.838
281.084
278.732
292.905
285.822
280.989
278.528
291.864
285.623
280.949
278.639
275.873
274.637
273.916
273.529
273.362
275.856
274.632
273.914
273.528
273.362
275.865
274.631
273.913
273.528
273.362
275.844
274.625
273.91
273.526
273.361
275.859
274.625
273.91
273.526
273.36
275.828
274.615
273.906
273.524
273.359
275.795
274.6
273.898
273.52
273.357
275.747
274.576
273.887
273.515
273.354
275.834
274.613
273.903
273.523
273.359
275.846
274.611
273.901
273.521
273.358
275.86
274.622
273.907
273.525
273.36
275.866
274.619
273.905
273.523
273.359
275.802
274.598
273.897
273.519
273.357
275.818
274.598
273.895
273.518
273.356
275.758
274.577
273.886
273.514
273.354
275.781
274.579
273.886
273.514
273.353
275.898
274.642
273.917
273.53
273.363
275.92
274.646
273.918
273.53
273.363
275.893
274.638
273.915
273.529
273.362
275.916
274.643
273.917
273.529
273.362
275.887
274.633
273.912
273.527
273.361
275.908
274.638
273.914
273.528
273.362
275.885
274.627
273.909
273.525
273.36
275.895
274.631
273.911
273.526
273.36
275.879
274.624
273.907
273.524
273.359
515.482
513.399
515.934
513.819
517.064
514.918
519.25
516.9
523.069
520.456
529.307
529.722
527.359
526.735
530.167
531.008
530.43
531.136
561.488
570.527
572.436
572.872
572.967
551.93
567.86
571.823
572.737
572.935
561.716
570.584
572.45
572.875
572.968
552.267
567.956
571.843
572.744
572.936
561.996
570.65
572.465
572.879
572.969
552.727
568.072
571.87
572.75
572.938
562.56
570.779
572.494
572.885
572.97
553.496
568.26
571.912
572.759
572.94
563.507
570.98
572.538
572.895
572.973
554.719
568.54
571.973
572.772
572.943
564.351
571.103
572.559
572.898
572.973
557.418
569.113
572.091
572.795
572.948
564.121
571.076
572.556
572.898
572.973
556.373
568.886
572.045
572.787
572.946
564.431
571.111
572.56
572.898
572.973
557.942
569.239
572.117
572.8
572.949
564.514
571.129
572.564
572.899
572.973
558.057
569.28
572.123
572.802
572.949
409.258
448.426
444.21
403.922
394.353
401.656
392.032
401.08
423.665
443.113
427.776
444.97
274.612
274.918
275.595
276.736
278.496
281.075
274.858
275.188
275.916
277.124
278.938
281.511
274.433
274.346
274.744
274.68
275.438
275.434
276.626
276.756
278.445
278.762
280.969
281.292
284.714
289.624
296.094
304.303
312.549
317.987
284.997
289.485
294.949
300.99
306.48
309.896
274.455
274.232
273.935
273.583
273.198
274.731
274.464
274.11
273.692
273.235
275.339
274.976
274.497
273.932
273.316
276.364
275.838
275.146
274.335
273.453
277.941
277.161
276.141
274.951
273.661
280.243
279.084
277.581
275.841
273.962
274.676
274.418
274.075
273.671
273.228
274.974
274.668
274.264
273.788
273.267
275.627
275.218
274.678
274.045
273.354
276.71
276.127
275.363
274.469
273.498
278.333
277.486
276.383
275.1
273.712
280.626
279.399
277.813
275.983
274.01
274.294
274.096
273.832
273.519
273.176
274.216
274.03
273.782
273.488
273.166
274.574
274.332
274.01
273.63
273.214
274.517
274.284
273.974
273.607
273.206
275.199
274.859
274.409
273.878
273.298
275.195
274.856
274.407
273.877
273.298
276.267
275.757
275.086
274.298
273.441
276.384
275.857
275.162
274.345
273.456
277.897
277.127
276.117
274.937
273.657
278.183
277.368
276.299
275.05
273.695
280.153
279.013
277.531
275.811
273.952
280.444
279.259
277.716
275.926
273.991
283.472
281.764
279.578
277.071
274.377
287.791
285.317
282.208
278.685
274.923
293.402
289.877
285.557
280.74
275.62
300.364
295.439
289.616
283.245
276.484
307.102
300.699
293.436
285.642
277.347
311.445
304.048
295.868
287.186
277.917
283.717
281.963
279.723
277.159
274.407
287.67
285.219
282.136
278.641
274.908
292.434
289.109
285.002
280.4
275.503
297.633
293.308
288.08
282.293
276.148
302.282
297.021
290.791
283.968
276.727
305.148
299.297
292.453
285
277.087
274.635
274.993
275.738
276.977
278.882
281.67
274.884
275.272
276.071
277.375
279.317
282.049
274.455
274.368
274.816
274.753
275.58
275.581
276.875
277.026
278.861
279.225
281.661
282.108
285.564
290.7
297.296
305.395
313.286
318.243
285.705
290.327
295.835
301.774
307.015
310.085
274.477
274.25
273.948
273.592
273.201
274.799
274.522
274.154
273.72
273.244
275.469
275.088
274.582
273.986
273.335
276.583
276.025
275.29
274.425
273.484
278.292
277.461
276.371
275.096
273.711
280.786
279.549
277.939
276.067
274.039
274.7
274.438
274.091
273.68
273.231
275.049
274.733
274.314
273.819
273.278
275.768
275.338
274.77
274.103
273.374
276.939
276.323
275.513
274.563
273.53
278.678
277.782
276.61
275.243
273.76
281.118
279.821
278.139
276.188
274.08
274.314
274.113
273.845
273.527
273.179
274.236
274.047
273.795
273.496
273.169
274.639
274.388
274.053
273.657
273.223
274.583
274.34
274.017
273.634
273.216
275.327
274.968
274.492
273.93
273.316
275.329
274.97
274.494
273.931
273.316
276.492
275.95
275.234
274.391
273.472
276.629
276.066
275.322
274.446
273.491
278.276
277.451
276.365
275.093
273.71
278.605
277.728
276.575
275.224
273.754
280.784
279.554
277.946
276.073
274.042
281.188
279.896
278.206
276.234
274.096
284.251
282.435
280.096
277.398
274.49
288.781
286.175
282.875
279.109
275.068
294.518
290.853
286.324
281.232
275.79
301.394
296.355
290.347
283.721
276.651
307.812
301.341
293.958
285.988
277.47
311.695
304.277
296.056
287.312
277.963
284.366
282.522
280.155
277.433
274.501
288.444
285.889
282.657
278.972
275.022
293.254
289.824
285.561
280.758
275.627
298.365
293.953
288.589
282.621
276.262
302.787
297.469
291.148
284.2
276.808
305.327
299.457
292.582
285.084
277.116
349.676
331.647
290.104
285.115
287.238
284.872
288.498
352.081
348.599
328.308
338.425
308.403
318.954
302.54
306.048
300.442
347.166
321.084
305.306
301.549
309.169
304.63
297.26
295.878
294.404
291.302
298.996
296.206
347.241
325.519
334.643
315.091
308.596
321.024
297.891
291.73
300.634
332.12
317.83
306.024
294.353
281.483
321.405
311.406
301.221
290.795
279.488
288.273
285.772
282.584
278.933
275.009
283.863
282.122
279.869
277.26
274.443
285.768
283.722
281.072
278.005
274.695
283.656
281.957
279.751
277.189
274.419
286.875
284.633
281.746
278.419
274.835
336.426
321.669
308.92
296.047
282.146
334.07
319.787
307.174
294.299
280.471
320.133
311.017
300.979
290.352
279.048
327.164
314.811
303.406
291.637
279.381
304.102
298.61
292
284.696
276.96
312.767
305.356
296.838
287.651
277.978
299.158
294.686
289.158
282.959
276.367
302.166
297.101
290.912
284.025
276.726
297.366
293.25
288.112
282.32
276.15
332.514
318.804
306.912
294.817
281.738
314.351
306.579
297.827
288.435
278.383
301.48
296.527
290.502
283.796
276.661
298.245
293.916
288.594
282.631
276.266
304.657
299.018
292.322
284.949
277.082
300.836
295.972
290.095
283.566
276.593
294.501
290.853
286.333
281.242
275.794
293.35
289.95
285.681
280.838
275.654
292.106
288.964
284.967
280.4
275.503
289.366
286.702
283.289
279.369
275.156
296.094
292.207
287.348
281.858
275.997
293.654
290.211
285.878
280.959
275.694
331.299
317.532
305.928
294.308
281.595
317.105
308.339
299.058
289.36
278.864
324.484
313.508
302.935
291.923
279.875
309.357
302.608
294.919
286.616
277.71
304.12
298.553
291.975
284.745
277.014
314.234
306.469
297.764
288.441
278.407
295.072
291.333
286.693
281.463
275.868
289.725
286.983
283.49
279.492
275.198
297.443
293.257
288.108
282.335
276.166
277.254
285.577
293.458
300.626
306.616
311.335
470.676
464.112
438.955
445.252
453.648
443.977
428.687
417.553
491.925
509.091
484.775
499.971
474.407
465.057
486.874
459.077
453.808
429.524
434.524
445.048
436.641
421.105
411.702
479.869
491.654
473.669
483.789
464.041
455.504
472.54
442.831
439.065
416.284
419.845
432.416
425.769
409.964
402.246
461.522
472.363
456.655
466.301
449.409
442.388
457.394
425.78
423.099
402.285
404.896
417.958
412.348
397.402
390.973
443.793
455.153
439.985
450.274
434.223
427.589
442.572
413.285
411.19
392.021
394.143
406.871
402.13
387.913
382.208
430.255
442.531
427.092
438.681
422.597
416.856
432.115
404.76
402.958
384.99
386.863
399.216
395.24
381.282
376.111
421.341
435.603
418.514
431.875
414.918
409.955
425.356
386.924
383.819
410.383
414.905
379.552
374.3
403.09
394.287
364.195
344.024
363.412
345.846
359.905
359.504
348.693
382.107
379.244
403.609
407.491
375.299
370.479
397.239
389.211
359.317
340.164
358.681
342.077
355.412
355.447
344.636
374.479
372.013
393.505
396.547
368.598
364.28
388.357
381.608
354.228
335.651
353.529
337.306
350.639
350.591
339.562
365.193
363.127
382.099
384.484
360.03
355.804
377.923
371.811
347.208
330.399
346.619
331.757
344.066
343.877
333.85
357.919
356.104
373.525
375.548
353.391
349.482
369.896
364.429
341.445
326.699
340.937
327.653
338.882
338.579
329.591
352.801
351.149
367.605
369.425
348.844
345.466
364.292
359.341
337.839
324.258
337.428
325.124
335.615
335.448
327.12
535.11
553.335
522.799
544.855
506.168
534.206
477.968
510.947
477.735
503.804
503.037
528.674
518.499
540.741
529.438
549.308
496.175
473.513
518.555
485.945
466.143
442.804
488.241
453.54
543.692
551.618
558.2
562.563
531.598
541.587
550.672
557.11
532.239
514.808
507.007
495.35
527.434
543.738
540.096
539.724
497.399
501.988
514.426
513.312
464.437
468.079
547.663
550.103
519.343
526.204
557.756
560.893
556.784
566.383
565.975
570.296
548.605
563.073
561.87
568.632
532.932
556.193
546.72
563.055
556.627
566.982
560.447
568.36
457.061
443.762
465.785
447.021
423.908
412.268
432.631
415.523
495.432
477.62
486.911
473.943
471.87
448.584
473.393
448.371
438.511
417.171
439.922
417.005
501.329
479.382
502.942
479.36
522.038
553.325
508.265
543.42
513.829
548.377
503.723
539.254
527.676
556.109
510.488
545.585
529.45
557.119
510.761
546.532
547.973
530.618
561.518
548.869
536.056
518.86
556.588
542.357
519.127
503.555
548.39
533.453
439.349
401.335
473.11
501.587
538.416
394.986
432.506
465.522
491.882
525.695
401.176
435.732
467.644
496.964
531.108
499.667
472.436
505.369
479.332
493.183
467.922
503.468
477.451
484.035
460.592
501.173
475.721
383.492
368.944
421.379
404.876
452.338
433.48
477.013
455.772
501.463
477.909
388.506
372.792
423.939
409.931
455.699
440.161
483.431
465.179
507.663
487.337
429.646
422.564
428.991
423.101
394.326
373.987
394.999
374.482
460.948
458.308
461.571
456.671
426.874
422.813
426.841
423.173
394.486
375.11
394.564
375.458
458.561
458.096
458.596
458.626
491.165
488.354
516.094
512.418
490.391
484.838
514.518
507.729
490.225
488.997
516.598
514.108
488.949
488.4
515.519
513.265
443.412
421.303
409.899
446.812
423.041
411.226
440.892
418.472
406.615
445.385
420.899
408.492
434.189
411.731
399.751
443.784
417.591
404.243
353.039
341.208
335.189
385.368
368.248
358.926
410.936
389.563
377.645
429.533
405.574
392.714
444.487
415.424
400.277
355.473
341.118
333.732
392.129
373.002
362.217
418.133
394.047
380.118
437.271
408.344
392.112
449.546
416.454
398.59
395.042
385.597
400.99
391.554
428.577
411.873
440.124
420.128
369.829
346.915
370.976
348.721
371.252
349.703
373.064
351.587
372.583
368.724
371.883
366.433
353.198
356.574
395.752
398.384
426.006
428.801
375.739
379.883
375.634
378.013
359.42
362.232
325.061
307.556
330.041
310.474
327.62
308.125
332.436
311.37
331.796
308.956
338.377
313.203
341.908
315.854
343.318
317.268
367.387
357.599
375.055
361.146
393.568
382.562
401.637
386.091
354.005
340.274
346.928
336.967
379.299
363.035
380.896
363.442
406.469
387.915
407.954
388.022
357.842
342.125
359.457
342.692
334.103
310.872
323.645
306.182
327.925
307.511
320.789
304.266
337.724
313.325
325.298
307.365
339.485
314.89
325.914
307.934
309.49
299.808
301.772
295.825
311.742
302.341
302.171
296.579
315.981
307.793
303.185
298.568
347.789
370.575
331.148
318.878
303.302
365.177
343.001
324.83
313.493
300.281
370.315
347.659
329.909
316.293
301.881
292.641
286.753
290.586
285.556
295.212
288.962
291.734
286.682
300.291
293.411
293.994
288.79
354.149
341.27
333.035
321.732
317.573
308.542
306.955
299.197
296.693
291.275
358.056
342.72
336.877
323.483
321.356
310.546
309.555
300.489
298.393
292.338
341.402
323.972
344.723
326.363
363.645
343.245
366.605
344.85
327.567
313.142
324.624
310.864
347.368
327.845
347.947
328.384
368.539
345.73
368.915
346.179
330.102
314.689
330.683
315.169
312.915
301.656
300.007
292.471
311.333
300.019
299.275
291.831
314.234
302.818
300.47
292.763
315.529
303.436
301.247
293.487
281.16
278.459
277.394
278.18
276.087
275.375
283.268
280.141
278.885
279.164
276.911
276.072
287.251
283.503
281.925
280.776
278.013
276.951
328.469
319.599
315.291
311.484
304.907
301.902
300.261
294.979
292.742
291.683
286.921
284.836
282.072
278.675
277.337
328
317.169
312.182
311.457
302.993
299.241
300.597
293.819
290.932
291.478
286.098
283.969
281.594
278.268
276.985
293.797
285.285
280.373
277.434
294.993
285.701
280.482
277.423
293.875
285.338
280.425
277.477
295.407
285.892
280.616
277.52
293.856
285.374
280.577
277.628
295.705
286.06
280.834
277.693
296.748
286.523
280.88
277.635
297.527
286.947
281.029
277.689
294.938
285.888
280.833
277.749
293.469
285.529
280.807
277.926
293.528
285.338
280.702
277.81
292.659
285.163
280.678
277.934
296.044
286.368
280.95
277.744
294.103
285.843
280.932
277.984
296.844
286.767
281.116
277.842
294.584
286.109
281.082
278.099
291.853
284.642
280.248
277.518
289.622
283.917
280.086
277.644
291.876
284.666
280.295
277.568
289.818
283.996
280.125
277.681
292.002
284.737
280.4
277.676
290.356
284.2
280.225
277.752
291.896
284.76
280.493
277.817
290.796
284.385
280.347
277.855
291.742
284.791
280.567
277.962
287.894
283.395
279.821
277.858
286.926
283.139
279.723
277.904
288.275
283.53
279.885
277.901
287.341
283.286
279.783
277.938
288.971
283.782
279.983
277.956
288.053
283.544
279.879
277.991
289.835
284.111
280.152
278.052
288.89
283.864
280.017
278.067
290.68
284.486
280.359
278.157
289.629
284.202
280.173
278.156
291.816
285.127
280.63
278.29
290.704
284.858
280.522
278.357
291.309
284.83
280.495
278.219
290.206
284.548
280.349
278.255
292.215
285.382
280.729
278.348
291.134
285.144
280.667
278.449
292.586
285.614
280.859
278.437
291.531
285.399
280.812
278.546
275.544
274.477
273.84
273.492
273.34
275.544
274.479
273.841
273.493
273.341
275.567
274.487
273.844
273.494
273.341
275.573
274.492
273.847
273.495
273.342
275.596
274.498
273.849
273.496
273.343
275.604
274.505
273.853
273.498
273.344
275.64
274.523
273.861
273.502
273.346
275.688
274.547
273.873
273.508
273.35
275.632
274.515
273.857
273.5
273.345
275.668
274.525
273.86
273.501
273.346
275.62
274.507
273.852
273.498
273.344
275.652
274.516
273.856
273.499
273.344
275.663
274.531
273.864
273.503
273.347
275.697
274.539
273.867
273.505
273.348
275.71
274.553
273.875
273.509
273.35
275.739
274.559
273.877
273.509
273.35
275.55
274.476
273.839
273.491
273.34
275.559
274.476
273.838
273.491
273.34
275.568
274.484
273.842
273.493
273.341
275.573
274.482
273.841
273.492
273.34
275.596
274.494
273.847
273.495
273.342
275.596
274.491
273.845
273.494
273.341
275.626
274.505
273.851
273.497
273.343
275.622
274.502
273.849
273.496
273.343
275.641
274.511
273.853
273.498
273.344
514.405
510.26
514.44
510.374
515.076
511.24
517.055
513.33
521.392
517.648
529.016
529.301
526.645
525.619
530.062
530.872
530.404
531.105
561.118
570.436
572.416
572.868
572.966
550.94
567.63
571.773
572.727
572.933
561.244
570.474
572.425
572.87
572.967
551.212
567.716
571.791
572.734
572.934
561.504
570.544
572.443
572.874
572.968
551.652
567.838
571.821
572.74
572.935
562.102
570.686
572.475
572.881
572.969
552.493
568.048
571.869
572.75
572.938
563.18
570.914
572.524
572.892
572.972
553.929
568.372
571.938
572.765
572.941
564.274
571.083
572.554
572.897