/*--------------------------------*- C++ -*----------------------------------*\
  =========                 |
  \\      /  F ield         | OpenFOAM: The Open Source CFD Toolbox
   \\    /   O peration     | Website:  https://openfoam.org
    \\  /    A nd           | Version:  11
     \\/     M anipulation  |
\*---------------------------------------------------------------------------*/
FoamFile
{
    format      ascii;
    class       volScalarField;
    location    "0.5";
    object      gradTy;
}
// * * * * * * * * * * * * * * * * * * * * * * * * * * * * * * * * * * * * * //

dimensions      [0 -1 0 1 0 0 0];

internalField   nonuniform List<scalar> 
5712
(
14889.5
8586.56
23571.9
15704.1
25846
19375.8
39205.1
50432.8
52136.8
65704.5
34364.5
30374.4
21780.6
17645.1
11157
7595.03
23249.9
22408.2
20565.2
23300.4
31045.2
26098.2
37447.3
28472.2
10201.7
7195.91
5849.36
4534.37
11678.2
9654.41
7350.48
6332.06
23975.5
23680.7
22884.3
17458.4
16941.7
14196.1
13543.6
15767.5
21529
21796.9
48109.7
50207
31997.9
33513.2
21073.9
17717.2
21249.1
14665.9
10003.3
10634.4
9475.02
15498.7
5016.32
6730.41
12773.9
20294.1
7833.97
9955.49
13398.9
26824.5
9546.26
17599.9
3474.62
10323.2
2906.38
7684.16
19028.3
23697.2
20738.9
24227.4
22344.6
21896.6
23893.8
22195.3
18874.4
26238.5
18460.9
25371.6
20907
24433.4
21148.6
24552.8
24782.8
22252.7
25017.2
22181.1
17746.9
26664.6
17311.4
26928.2
25105.8
32737.3
31693.6
49774.7
26578.9
38654.2
31286.6
54971.7
23861.1
28455
31906.4
47516.7
23725.3
26505.8
32382.9
47165.5
9692.39
13203.9
25259.1
46300
11515.8
13491.9
31423.4
50843.4
13494.4
13665.9
38283.3
53882.6
27208.3
25621.4
26367.3
28756.2
48560
25055.7
26519.5
26420.9
25349.5
56966.9
23100.4
25099.9
25277.1
29677.5
63485.5
3277.3
3935.37
7249.16
18830
4499.92
5178.98
9448.83
19872.1
6248.81
5168.4
12123.6
21111.2
23008.1
19910.6
23038.5
19597.5
23046.5
18016.1
18968.3
15049.9
15034.1
23151.5
21644.4
18593.4
24046.5
21216.5
23518.9
19958.9
22073.1
18454
15625.2
22396.2
24657.8
26584
24750
27591.5
21897.8
21402
21631.7
22078.2
24855.9
24586.3
24725.8
23813.9
24585.4
27840.5
24585.5
27963.5
21112.6
22608.3
21032.9
22680.5
24826.8
24426.9
24899.8
24474.1
23120.3
21631.4
15534.8
18434.6
23190.3
21291.8
15392.6
18935.7
23248.8
21391.4
15844.8
18328.8
23291
21104.4
16321.8
18255.2
2209.24
1124.94
601.365
1122.32
510.763
410.456
3155.65
1285.64
732.217
2039.34
1231.08
776.165
3122.27
1649.9
1248.42
3401.49
2029.54
1438.09
15301
10206
7299.82
15398.8
10651.2
7802.4
12100.5
8269.06
6205.83
9643.05
5879.48
4190.47
5262.33
2633.62
1678.28
14650.1
9926.59
6957.13
16692.4
11047.5
7650.03
13928.4
8393.4
5583.34
10198.2
5530.89
3604.2
5509.42
2528.71
1467.13
29115.7
27042.1
33004
28046.7
34578.2
28329.4
43746.2
31086.1
20727.1
19246.9
20838
17848.9
23583.4
20434.9
23730.7
18733
23292.9
22279.9
21360.9
21972.6
26039.4
24343.1
30440.8
31422.2
34865.5
36678.7
24097.4
25550.4
21682.1
21358.8
24870.4
25840.7
13849
6748.2
13218.6
7531.41
14284.7
6789.77
13351.4
7442.94
14383.8
6787.45
13688.9
7819.16
13530
8210.05
13808.7
8043.99
20201.7
15937.8
20874.4
16298.8
23447.1
20029.5
24680
20321.9
19391.1
12457.4
19515.8
12010.8
21907.4
16423.3
22422.5
16250.2
26046.9
20446.5
26358.8
20253.7
19635.7
12614.8
19729.6
12503.7
11384.6
6613.46
8912.88
5256.89
10206.2
5778.54
8378.73
4853.28
11877.2
7083.15
9117.82
5418.56
11934.7
7298.99
9046.03
5405.78
1920.97
888.735
3328.09
1746.44
2005.24
1048.31
3494.63
2023.01
2414.74
1560.52
3827.85
2583.55
10235.5
17612.4
6974.42
6422.89
4329.57
16504.7
10270.3
5345.82
5281.9
3407.47
18180.1
13138
9625.43
6877.92
4116.44
393.573
188.301
985.74
653.714
517.978
234.155
1265.74
863.48
897.272
462.147
1759.92
1227.17
15598.2
13050.3
9280.67
7428.77
5260.87
4250.18
4166.15
2890.18
2651.17
1842.07
15316.4
12074.3
10618.7
7716.41
7410.71
5179.56
5120.6
3478.31
3323.71
2533.5
11618.4
7654.57
12050.2
7877.6
15523.8
11298.8
15934.3
11745.6
8965.84
5728.79
8448.04
5449.9
12253.8
7956.76
12186.1
7946.99
16073.5
12261.9
15967.4
12276.6
9261.19
5776.78
9216.71
5815.01
6218.27
3972.52
3952.28
3142.32
5843.7
3710.48
3752.6
2879.36
6535.94
4102.81
4058.08
3309.98
6645.12
4090.6
4209.04
3335.27
275.13
189.996
128.339
1270.95
501.565
327.16
267.918
218.679
158.603
1454.67
623.474
423.887
442.99
390.901
321.265
1755.98
843.222
597.309
9603.42
6577.52
4882.66
5385.29
3743.57
2862.75
3176.58
2215.95
1735.52
2129.9
1456.24
1110.61
2215.55
1134.66
799.423
8706.46
5702.94
4003.78
5218.23
3330.12
2363.24
3434.57
2140.34
1525.44
2556.67
1547.82
1067.43
2928.48
1334.07
885.38
2873.36
1175.56
473.342
175.702
3278.89
1304.7
510.75
185.52
2878.97
1173.04
473.319
175.733
3334.92
1333.73
529.439
194.262
2865.43
1157.06
488.997
186.814
3403.35
1346.97
562.33
213.076
3664.63
1424.2
548.174
197.477
3705.95
1455.12
544.325
193.754
3004.65
1232.4
520.208
197.003
2430.94
1052.63
462.135
179.017
2619.97
1102
485.646
192.387
2250.15
990.706
443.421
175.037
3244.54
1320.91
535.012
196.559
2526.75
1092.08
470.097
180.276
3346.07
1367.15
543.471
199.427
2551.54
1113.23
477.584
184.641
2080.02
965.49
421.163
164.466
1369.15
738.895
358.501
147.361
2083.02
960.87
421.747
165.174
1428.97
753.012
362.297
148.691
2142.05
963.803
431.811
170.782
1608.65
797.446
376.294
152.807
2116.04
938.169
426.929
174.548
1770.08
831.119
395.837
159.223
1995.22
910.789
419.021
170.791
837.629
578.218
275.105
73.4335
429.572
499.063
243.991
67.8025
931.562
608.002
285.663
77.7593
513.601
529.351
252.864
70.0415
1126.76
663.835
299.847
79.0586
678.125
584.035
265.704
72.1801
1390.63
735.243
325.431
87.0612
892.284
650.949
285.055
76.9454
1607.51
806.014
357.384
100.25
1034.71
711.109
303.604
81.3809
1783.82
885.782
371.133
98.8938
1109.37
788.893
335.85
88.9336
1718.88
853.844
363.433
98.1356
1043.82
756.266
320.472
85.0198
1812.43
902.929
369.159
93.722
1128.97
809.809
341.675
89.4515
1844.46
915.472
373.89
94.5624
1166.58
823.267
347.224
90.7517
65.763
26.8905
10.2837
3.61108
0.865892
66.9899
27.1354
10.3427
3.62626
0.86895
66.6653
27.3372
10.4147
3.64779
0.873578
69.0814
27.7059
10.5051
3.67273
0.878832
69.3215
27.8841
10.5616
3.68951
0.882454
72.1893
28.247
10.6665
3.72117
0.889382
71.5396
28.7533
10.8634
3.78365
0.903243
72.3547
29.2949
11.0787
3.85544
0.919625
71.8722
28.533
10.7617
3.74934
0.895449
72.465
28.8298
10.857
3.77749
0.901516
71.5833
28.2235
10.656
3.71678
0.888293
72.1018
28.5616
10.7583
3.74647
0.894649
71.9847
28.9524
10.929
3.80336
0.907529
73.6353
29.2172
10.9986
3.82349
0.911886
73.6724
29.4993
11.1265
3.86856
0.922429
75.3418
29.7129
11.1652
3.87789
0.924339
64.8079
26.6436
10.2219
3.59552
0.862822
64.0732
26.4836
10.1819
3.58553
0.860865
65.7763
27.0044
10.3263
3.62427
0.868762
65.0219
26.7861
10.2677
3.60885
0.865642
67.9385
27.5821
10.479
3.66608
0.877474
67.1258
27.3447
10.4144
3.64833
0.873772
70.0053
28.0845
10.6133
3.70376
0.88544
69.4701
27.9262
10.5677
3.69057
0.88262
71.5745
28.3446
10.6879
3.72529
0.890045
19625.8
30420.4
20023.1
30271.4
20459.2
29840.4
20286.1
29032.1
18693.4
26966.1
16617
18994.8
16838.1
20338.3
16631.2
18648
16932.1
18793.3
18173.2
3206.76
726.772
179.607
35.7125
20081.5
5947.32
1530.22
382.207
76.1573
18066.9
3145.29
710.929
175.693
34.9321
19896
5855.39
1507.51
376.236
74.6599
17733.3
3069.58
693.7
171.905
34.2757
19465.5
5723.8
1476.75
369.586
73.5753
17027.4
2911.82
658.906
164.351
32.9576
18657.8
5495.58
1425.18
358.911
71.7997
15749.1
2644.61
603.282
152.379
30.8298
17269
5138.48
1347.37
342.869
69.079
13670.6
2415.22
577.344
150.233
30.8722
13846.9
4390.86
1199.81
315.118
64.8315
14293.9
2471.45
580.085
149.132
30.4494
14868.1
4667.56
1254.53
324.45
66.0361
13427.1
2402.36
579.219
151.643
31.2576
13479.7
4270.2
1174.26
311.052
64.4352
13375.4
2386.07
575.964
151.126
31.1609
13454.3
4246.72
1168.39
310.952
64.4676
39221.6
59475.4
57544.1
37496
20198.6
21596.1
30185.5
32340.3
24989.8
28963.9
41504.8
59058.5
53288.6
72925.5
33913.1
39716.8
25715.4
28124
13584.4
15155
3722.65
2093.55
129.527
63.3172
65.5557
51.3382
90.3511
3154.65
2499.42
1324.27
1537.99
1105.85
424.039
746.519
483.031
266.991
317.707
217.919
2996.98
1088.62
386.525
327.167
574.749
454.074
278.933
210.89
134.471
106.893
223.475
194.688
3369.21
1629.85
1992.9
937.303
626.032
1164.37
272.956
133.687
326.694
6828.18
5530.31
4398.48
3753.69
4920.87
4154.36
3823.43
3244.41
2828.54
2791.41
312.785
384.404
399.183
387.77
375.889
155.762
197.263
210.866
209.394
205.225
161.702
205.556
220.298
218.954
214.556
127.082
162.555
175.418
175.416
172.518
220.865
276.683
292.348
287.45
280.125
5977.8
5032.15
3919.66
3186.13
4108.73
4730.45
3875.81
2921.88
2327.91
2301.05
2730.3
2629.55
2235.03
1894.2
1773.81
2924.75
2468.2
1875.06
1474.46
1310.03
2090.87
1783.41
1363.99
1056.95
911.953
954.138
1047.62
980.005
878.757
818.252
1593.41
1612.62
1412.23
1209.92
1107.29
1050.85
1095.39
979.682
845.583
767.535
619.464
713.005
694.117
639.563
601.859
722.68
806.544
763.642
688.047
638.981
511.441
598.996
591.632
550.229
519.494
5778.76
5011.19
4005.88
3346.54
4324.99
2315.05
2346.36
2083.35
1826.19
1736.57
884.362
996.979
955.336
873.694
823.587
757.807
871.601
851.296
790.451
751.007
1284.43
1400.49
1311.25
1186.15
1122.66
1039.83
1175.94
1133.91
1046.3
994.689
655.134
770.856
769.75
727.577
697.433
501.455
600.623
607.933
578.767
555.263
324.349
397.146
409.607
394.45
379.748
259.87
322.486
337.306
328.728
318.68
526.44
620.873
618.569
580.784
552.582
462.833
554.077
560.226
532.424
510.014
6315.11
5291.49
4248.6
3615.03
4709.77
3326.84
3194.15
2778.58
2448.74
2393.27
4158.81
3981.75
3358.44
2904.87
3010.07
2044.87
2159.8
1988.11
1793.88
1716.89
1409.48
1555.7
1474.26
1348.79
1284.11
2484.43
2537.07
2271.96
2008.22
1921.74
641.287
754.422
752.412
709.844
679.311
322.449
395.214
408.825
395.491
382.252
759.319
878.224
862.525
804.799
766.762
23478.6
16052.9
23885.6
17660.1
29847.1
46190.6
31778.5
46351.1
24035.1
24509.1
21179
24422.2
25736.2
23320.5
35402.6
27036
19262.4
19872.3
9459.68
8839.65
20688
20544.1
10716.9
9420.97
26720.4
27957.5
25919.6
22478.4
27720
18156.4
13691.9
15906.5
22040
21985.4
48654.4
50545.4
31683.2
33510.2
22589.8
18096.6
23041.2
15047.3
11438.8
11023.8
22846.9
26617.6
9451.37
10826.2
24614.9
29934.7
11611.4
13500.4
22454.6
34458.1
12925.7
21623.1
4293.06
11764.7
3083.69
7982.69
21277.6
23577.6
21438.6
24232.1
21192.3
20801.5
23133.7
21637.1
21343.9
26911.3
24361.4
26390.9
21153.6
24456.9
21204.3
24561.4
24461.2
21993.9
24937.3
22104.5
18702.3
27031.4
17537.8
27040.7
27335.1
35560
32914.4
51377.8
30021.2
43053.8
33197
57541.9
24993.2
29912.3
32566
48401.6
24051.2
26935.1
32585.8
47450.4
31648.6
33653.8
42339.7
64961.6
31051.4
30992.5
45043.3
65310.3
29326.6
28043.6
47874
63606.5
21176.8
19790.9
25477.4
31135
53739.4
18622.5
19002.3
26453.6
27370.4
62628.3
19397.9
22365.2
25106.9
31811.9
67020.2
14449.3
12049.2
15850.5
22810
16052.5
13462.4
16290
23095.4
18066.2
14177.5
16829.9
23104.4
16924.1
14552.7
17333.6
15079.9
23179.9
19272.5
20908.8
17186.5
17372.2
23726.1
18169.4
16178.2
21231.5
19475.9
22962.4
19904.3
23516.9
19706.2
16874.2
22486.9
23653.2
25482.4
24376.2
27071
20354.9
20056.7
20940.9
21405.7
24996.2
24575.4
24768.7
23695.1
24430.7
27616.1
24544.3
27901.7
20805.7
22288.8
20944.7
22588.5
24912.1
24444.9
24923.1
24479.5
23641.6
21966.9
16027.8
18817.6
24032
21826.5
16238.4
19472.5
23523.8
21578.9
16108.2
18553.1
23377.9
21164.6
16411.7
18329.9
10238.9
10445.8
4993.14
4334.18
11503.4
10765.4
5621.58
5135.82
11009.9
9523.28
6289.26
5741.9
12640.7
10978.1
13623.4
12493.2
15313.9
13356.8
13053.6
10371.8
7695.95
5654.61
14193.8
11986.6
17044.4
14406.5
15472.2
12366.9
12593.8
9176.21
6881.74
4186.55
22844.8
20520.5
30568.5
24930.7
27576.6
23066.7
41295.3
28696.9
19732
14537.4
22727.1
16043.8
19444.6
14921.7
22848.1
16498.3
20947.4
17185.3
18437.6
16003.3
18699.8
21299.6
29006.1
31017.4
33950.6
36463.1
22801.7
25156
20278.8
20968
23094.3
25244.5
10507.1
6684.13
11368.3
7052.53
10891.8
6659.46
11715.5
6992.75
11071.1
6610.22
12118.9
7338.4
12529.7
7813.46
13446.8
7896.2
16001.6
14481.6
18797.5
15382.7
19812.8
18088.1
22842.8
19264
17164.6
11844.9
15277.4
11257.1
20890.7
15933.6
22125.3
16099.7
25233.3
19928.5
26138.7
20100.6
18468
12248.1
19367
12386.4
10548.6
6438.25
8641.4
5218.31
9451.08
5934.23
8244.56
4986.83
11337.6
6890.27
8913.94
5358.6
11760.4
7223.29
8976.42
5382.35
9287.22
8387.34
5871.58
4975.31
9479.08
8595.54
5770.95
4946.68
9525.36
8373.8
5652.14
4983.31
12882.3
16671.2
12490
8233.62
5375.23
15031
12976.7
12948.1
7892.83
4990.97
16881.8
13431.2
10602.5
7853.69
4723.43
7367.77
6293.97
4327.14
3862.86
7492.16
6336.26
4357.75
3887.39
7176.28
5982.21
4335.25
3734.15
13884.3
11582.9
11330.1
9335.92
10170.8
8748.08
6971.06
5942.64
4313.68
3610.88
14149.7
11303.8
11243.5
8522.38
8803.02
6691.27
6494.06
4987.35
4081.59
3392.5
11251.8
7753.96
11633.6
7748.58
14525.9
10752.8
15301.7
11362.9
8779.25
5764.48
8544.78
5882.01
11993.2
7836.16
12101.4
7903
15749.3
12042.3
15869.4
12208.7
9095.2
5727.62
9157.48
5790.27
6207.9
4092.68
4008.97
3263.84
6154.46
4213.57
4022.01
3283
6465.51
4102.89
4050.28
3336.87
6614.57
4082.06
4200.22
3336.77
5896.53
5420.38
6016.2
5082.67
5939.5
5421.01
5813.38
4856.82
5436.69
5028.21
5409.54
4469.62
9715.69
8331.47
7643.33
6512.04
7373.29
6566.47
5280.88
4543.7
4971.48
3902.28
8846.4
7229.19
6416.51
5314.31
5181.1
4476.36
4292.04
3578.79
4594.33
3258.01
3213.98
1356.31
546.57
201.96
3401.7
1426.77
569.812
208.5
3175.83
1337.6
539.255
199.027
3406.91
1429.94
578.379
213.905
3106.87
1297.86
547.482
207.94
3434.62
1418.59
602.218
230.002
3637.96
1458.45
570.875
207.495
3688.68
1464.8
551.449
197.034
3066.5
1291.73
552.186
210.719
2481.33
1095.13
484.94
189.051
2827.24
1213.38
535.849
212.07
2389.74
1072.71
479.731
189.224
3246.18
1347.71
552.307
204.459
2539.3
1111.51
482.464
186.221
3340.47
1374.47
548.873
202.01
2553.01
1118.71
481.462
186.579
2872.7
1238.82
516.479
196.157
2430.76
1089.52
475.833
184.468
2813.6
1216.53
510.618
194.478
2402.47
1079.63
471.746
183.38
2745.75
1183.39
510.6
197.141
2408.57
1072.24
470.373
182.561
2542.77
1113.03
492.812
197.414
2352.55
1051.76
473.807
183.737
2282.85
1044.8
471.52
189.236
1954.87
960.055
389.442
97.3304
1414.76
886.029
364.062
94.5468
1970.18
963.167
393.23
100.95
1444.12
889.063
365.558
95.3427
2011.76
965.29
391.315
98.4288
1496.31
890.984
362.723
94.0059
2001.65
961.941
400.228
103.69
1488.56
887.415
363.572
95.1052
1932.38
949.563
411.938
114.081
1358.78
870.894
361.625
95.465
1837.21
925.872
392.797
105.189
1160.5
835.33
357.935
95.0435
1861.62
933.223
399.234
107.703
1187.66
848.162
358.043
94.7085
1828.07
920.808
380.362
97.0649
1141.69
829.562
352.49
92.6012
1846.78
920.404
377.271
95.5997
1167.84
828.459
350.364
91.6961
75.4646
30.5142
11.5383
4.01433
0.957261
75.6275
30.5012
11.5315
4.01204
0.956702
75.3292
30.5753
11.5419
4.0115
0.956179
76.4679
30.582
11.526
4.00546
0.954716
77.0394
30.6899
11.5378
4.00536
0.954335
78.3433
30.5861
11.4984
3.99331
0.951591
75.5038
30.3168
11.4283
3.97024
0.946111
73.756
29.8672
11.2885
3.92533
0.935748
77.2645
30.6129
11.497
3.98967
0.950424
77.207
30.6301
11.4925
3.9855
0.949178
78.7367
30.7618
11.5349
4.00128
0.953109
78.5187
30.7928
11.5305
3.99698
0.951825
75.3411
30.321
11.4236
3.96688
0.945138
76.5352
30.3862
11.4208
3.9634
0.944125
74.7883
29.9581
11.2949
3.92481
0.935428
76.2988
30.1076
11.3099
3.92628
0.93554
76.3007
30.6034
11.5497
4.01654
0.957733
77.8923
30.7214
11.5598
4.01793
0.957994
76.4447
30.6603
11.557
4.01574
0.957183
77.9948
30.7636
11.5669
4.01787
0.957685
77.4803
30.7884
11.5621
4.01224
0.955888
78.576
30.8657
11.5744
4.01578
0.956735
78.5583
30.8813
11.5591
4.00721
0.954357
79.3553
30.9257
11.569
4.01037
0.955114
79.4596
30.8744
11.5499
4.00307
0.953267
21999.2
29754.4
21968.3
29570.8
21879.6
29162.6
21061
28308.1
19176.9
26365.5
16938
19292.5
17304.3
20634.6
16818.9
18838.8
16992.7
18854.6
18573.3
3246.63
735.882
182.121
36.2141
19889
5973.63
1546.67
387.4
77.2157
18389.5
3178.73
719.133
178.019
35.3994
19680.3
5875.07
1522.35
381.049
75.6444
17942
3093.95
700.64
173.957
34.6916
19230.2
5735.4
1489.49
373.874
74.4597
17146.3
2930.33
664.808
166.102
33.3103
18444.2
5505.36
1436.4
362.667
72.5704
15876.5
2665.24
608.747
153.841
31.1114
17164
5158.81
1358.4
346.192
69.7383
13834.1
2438.71
581.943
151.223
31.0431
14015.2
4434.63
1210.17
317.442
65.2365
14488.2
2498.32
585.585
150.395
30.6764
15020.5
4710.69
1266.27
327.362
66.5741
13531.6
2417.77
582.224
152.275
31.3645
13593.3
4300.15
1181.13
312.537
64.6875
13410.9
2391.29
576.98
151.337
31.1963
13493
4257.03
1170.74
311.454
64.552
38880
59589.3
57495.3
36318.6
26452.4
33629.4
25186.5
33416.9
31824.3
55418.6
34411.1
57139.6
1.42443
2.28485
4.4707
9.13855
18.7699
38.332
2.13366
3.33436
6.31443
12.4442
24.3444
46.6009
0.989353
0.797756
1.69359
1.46328
3.55124
3.29064
7.68447
7.58164
16.3198
16.583
32.9419
31.6678
77.6271
153.105
292.473
538.626
876.204
1131.87
86.5794
154.277
260.914
410.389
576.085
689.457
3.63693
4.91114
5.62593
5.92763
6.01261
5.81139
7.79411
8.86019
9.27177
9.36634
11.3165
15.0495
16.9469
17.5864
17.6774
23.0051
30.3017
33.7642
34.7174
34.7081
46.9274
61.0853
67.2052
68.3546
67.9056
94.9689
121.734
131.791
132.263
130.405
5.42895
7.28658
8.29061
8.68283
8.77575
8.44744
11.2521
12.6948
13.1967
13.2789
15.9112
20.9948
23.4414
24.1475
24.1677
31.1702
40.7058
44.9425
45.8516
45.6325
60.554
78.1407
85.1883
85.9905
85.0598
114.941
146.229
157.092
156.677
153.951
2.53341
3.43883
3.96265
4.1972
4.27077
2.04663
2.7874
3.2242
3.4266
3.49371
4.32006
5.82415
6.65974
7.00537
7.09863
3.73907
5.05646
5.802
6.12182
6.21457
9.0165
12.0559
13.6582
14.2487
14.367
8.36893
11.2232
12.7565
13.3458
13.4789
19.4079
25.7105
28.8286
29.8023
29.8872
19.1785
25.4756
28.6477
29.6869
29.8123
40.9497
53.6354
59.3958
60.7405
60.5262
41.6783
54.7365
60.7772
62.2828
62.1325
81.9773
105.855
115.449
116.541
115.265
79.0363
102.537
112.334
113.779
112.726
189.955
238.532
252.946
249.703
244.025
368.469
450.447
465.608
450.958
436.639
688.215
812.353
813.984
771.805
741.038
1228.24
1383.32
1334.82
1237.26
1182.07
1921.53
2045.35
1897.02
1724.03
1650.86
2428.02
2502.05
2269.87
2041.17
1959.6
211.349
264.309
279.114
274.644
267.944
371.864
455.587
471.729
457.397
443.039
619.264
740.405
749.857
715.945
688.919
956.429
1112.01
1099.88
1034.44
990.494
1317.74
1490.21
1442.44
1340.03
1280.19
1559.55
1734.88
1658.68
1530.76
1461.51
1.42769
2.29785
4.50578
9.22588
18.9731
38.7594
2.13751
3.34845
6.34709
12.5107
24.4609
46.7608
0.992259
0.800564
1.70641
1.47683
3.59106
3.33846
7.80086
7.7446
16.6393
17.0679
33.8225
33.3501
78.2586
153.405
291.334
534.222
869.71
1128.66
86.6724
153.993
259.792
408.127
573.448
688.253
3.64647
4.92707
5.64836
5.95542
6.04342
5.84928
7.85688
8.94793
9.37989
9.48592
11.418
15.2159
17.1772
17.8681
17.9879
23.2568
30.7115
34.3273
35.4021
35.4599
47.5147
62.0438
68.5213
69.9519
69.6568
96.2228
123.813
134.671
135.772
134.256
5.44068
7.30709
8.32045
8.72058
8.818
8.49044
11.3274
12.8045
13.3354
13.4342
16.0115
21.1718
23.7001
24.4748
24.5341
31.3778
41.0785
45.4924
46.5504
46.4159
60.9335
78.8512
86.2621
87.3717
86.6158
115.521
147.422
158.985
159.171
156.789
2.54172
3.45225
3.98103
4.21957
4.29537
2.05455
2.79993
3.2411
3.44694
3.51596
4.35632
5.88185
6.73781
7.09955
7.20169
3.77677
5.11511
5.87982
6.21443
6.31522
9.12787
12.2302
13.8904
14.5255
14.668
8.50025
11.4234
13.0171
13.6513
13.8082
19.7304
26.2079
29.4817
30.5722
30.7194
19.6207
26.1369
29.492
30.6618
30.8547
41.8318
54.9868
61.1558
62.7998
62.7428
42.989
56.6823
63.2396
65.104
65.136
84.3888
109.498
120.119
121.935
121.029
83.4776
108.882
120.059
122.363
121.714
191.954
242.128
258.188
256.268
251.32
370.109
454.631
472.774
460.654
447.769
687.161
814.93
821.517
783.762
755.579
1220.41
1379.67
1338.04
1246.97
1195.77
1909.07
2036.34
1894.42
1727.74
1658.66
2421.74
2497.1
2267.56
2041.53
1961.72
211.931
265.899
281.949
278.577
272.511
371.784
456.946
475.087
462.584
449.301
617.488
740.417
752.725
721.529
696.13
952.199
1109.6
1100.86
1038.76
996.873
1312.56
1486.38
1441.51
1342.04
1284.05
1557.14
1732.97
1657.92
1531.19
1462.69
3704.47
2085.19
131.574
64.9956
72.6825
54.9455
94.7567
3004.54
2466.38
1329.23
1653.67
467.868
809.922
306.277
378.557
254.7
2889.22
1079.87
409.836
338.695
581.462
456.477
279.49
217.273
155.891
119.806
245.371
206.71
3317.86
1611.68
1945.42
925.197
620.911
1147.13
276.624
140.128
333.1
6795.53
5507.32
4387.29
3753.5
4932.74
4138.59
3811.44
3238.51
2828.59
2795.67
319.047
395.166
414.255
406.102
395.953
160.439
204.482
220.264
220.34
216.964
180.114
230.952
250.133
251.153
247.72
136.552
175.959
191.571
193.2
191.036
232.815
294.412
314.592
312.639
306.727
5868.35
5232.46
4315.61
3695.27
4764.91
4917.94
4455.95
3732.2
3241.12
3265.33
2813.77
2855.56
2573.76
2298.1
2207.93
3476.34
3355.03
2884.72
2535.71
2379.67
1077.21
1233.08
1208.3
1130.11
1078.78
1787.32
1923.71
1802.34
1641.14
1553.47
724.507
863.081
872.935
832.944
800.824
887.231
1041.67
1039.9
982.837
940.439
608.97
737.106
755.44
727.086
701.454
5634.44
5015.65
4139.94
3566.44
4648.84
2328.61
2426.75
2226.85
2013.36
1947.59
952.142
1104.18
1093.03
1030.03
988.409
793.086
930.895
931.095
883.985
851.279
1315.47
1468.47
1413.44
1312.13
1260.95
1053.07
1208.04
1185.3
1112.25
1068.46
659.39
782.605
789.899
754.537
728.178
520.282
631.451
649.306
627.515
607.717
379.541
472.776
497.613
488.568
476.185
293.332
368.798
391.781
387.504
379.19
585.796
707.845
725.091
698.513
675.129
496.182
604.652
624.182
604.826
586.346
6227.74
5237.99
4232.29
3632.92
4768.73
3293.51
3171.34
2771.48
2456.57
2411.49
4084.92
3961.47
3397
2990.85
3135.19
2024.52
2152.01
1998.17
1819.93
1752.96
1404.86
1566.09
1503.07
1392.94
1337.13
2466.95
2561.18
2342.1
2114
2048.71
653.975
778.534
787.688
753.462
727.332
340.282
422.32
443.363
434.911
424.018
780.623
917.09
917.682
871.607
839.557
1176.17
1236.22
1327.68
1361.33
1194.36
520.011
23050.6
23132
24695.1
26045.5
21372.3
21773.7
22726.8
21002.5
20132.1
29674.6
20407.4
29699.2
23369.9
20267.9
36761.4
21287.1
21163.7
22408.8
23383.6
19226.6
19658.9
20925.4
19635.1
19560.3
35743.8
19673.3
34426.1
23187
25823.8
39106
18950.9
18655.5
19277.5
19867.1
17140.4
18223.8
18331.4
17788
21785
29523.9
22373.8
28885.6
24573.2
28410.7
33049.1
16459.9
16200.7
15924.6
16260.8
15259.2
16576.7
15247.7
15115.6
18803.7
23891.1
19306.6
22545.5
20512.8
23170.5
25760.4
14090.8
13879.1
13330.6
13535.3
13682.9
15038.3
12859
12936.8
16390.9
17497.3
16888.2
16014
16956.8
16713.1
18508.7
12789.6
12651.7
11487.8
11634.3
12327.2
13121.3
11219
11206.8
14509.1
13260.5
14674.2
12349.2
14300.3
12464.6
14833.2
21802.4
20455
24343.2
26242.4
19064.5
18317.8
21717
19824.6
17443.1
10952.5
17179.2
11008.1
14692.9
12953
14307.8
19565.7
18566.8
21392.7
22700.9
17619.3
17146.4
19553.3
17976.8
14928.7
9432.29
14728.5
9529.85
12245.4
10355.7
11753.3
16404.4
15779.3
17600.6
18315.4
15157.2
14716
16564.2
15488.7
12515.9
7995.87
12090.4
7827.86
10215.9
7984.35
10077.4
12861.8
12486.2
14049.9
14439
12025.7
11543.8
13551.1
12680.3
9776.04
6642.38
9503.74
6549.52
8137.02
6772.84
8465.59
10400
10148.2
11587.6
11829.8
9641.09
9204.27
11328.2
10672.3
7954.43
6126.66
7751.1
6082.19
6914.96
6286.67
7497.18
8604
8402.39
9926.55
10106
8093.02
7968.3
9683.59
9295.9
6848.47
5758.12
6746.68
5773.32
6161.79
6068.3
7044.48
14672.7
8321.43
23558.7
15710.2
25871.4
19355
39238.2
50446.6
52199
65732.2
34428.1
30371.9
21793.1
17682.3
10846.4
7257.05
23251.5
22409.6
20560.8
23300.1
31059.9
26104
37455.6
28476.3
9998.64
7042.01
5654.02
4395.08
11638.8
9640.56
7345.66
6350.78
23966.7
23672.2
22880.8
17457.6
16935
14199.6
13543.8
15769
21530.2
21798.6
48117.4
50212.6
32001.3
33515.5
21074.5
17719.1
21250.6
14667.4
10004.5
10635.8
9303.26
15270
4882.36
6571
12777.9
20314.9
7856.14
9982.96
13401.2
26835
9555.71
17612.7
3476.64
10328.1
2907.06
7686.01
19028.7
23697.9
20739.9
24228.2
22347.1
21897.8
23896
22196.2
18876.5
26239.8
18460.6
25372.5
20908
24434.2
21149.5
24553.6
24784.3
22253.4
25018.1
22181.5
17748.3
26666
17312.6
26929.6
25108.5
32743.3
31696
49778.5
26581
38660.6
31289
54976.4
23863.6
28459.3
31908.6
47520
23727.8
26509.2
32385.1
47168.7
9558.11
13076.6
24970
45997.2
11524.3
13496.8
31449.7
50876.9
13498.4
13669.1
38295.1
53895.3
27207.4
25621.5
26366.1
28757.8
48566.8
25055.6
26518.4
26418.8
25350.2
56974.3
23100.8
25099.9
25277.3
29679.8
63491.3
3223.18
3898.65
7110.72
18676.1
4506.25
5186.42
9469.92
19890.5
6251.91
5169.88
12130.2
21115
23007.6
19910
23037.4
19596.6
23044.9
18015.1
18969.3
15050.8
15037.4
23153.8
21644.2
18592.9
24046.2
21216.1
23519
19959
22074.6
18455.2
15627.2
22397.7
24658
26583.7
24750.3
27591.4
21897.9
21401.6
21631.8
22077.9
24856.6
24586.7
24726.4
23814.3
24585.7
27840.3
24585.7
27963.3
21112.6
22607.9
21032.8
22680.1
24827.5
24427.3
24900.5
24474.5
23121.5
21632.3
15535.9
18435.5
23191.6
21292.8
15394
18936.9
23249.9
21392.2
15845.7
18329.7
23292.1
21105.2
16322.7
18256
2185.73
1110.05
591.48
1122.03
507.277
406.057
3168.73
1291.64
733.6
2049.7
1236.31
777.763
3122.55
1650.35
1248.94
3402.18
2030.75
1439.12
15300.5
10206
7299.96
15398.5
10651.4
7802.84
12100.6
8269.71
6206.56
9643.59
5880.2
4191.26
5262.88
2634.25
1678.83
14649.7
9926.48
6957.24
16692.1
11047.6
7650.36
13928.5
8393.74
5583.8
10198.7
5531.35
3604.69
5509.91
2529.09
1467.42
29120.1
27043
33007
28047.6
34594.1
28335.3
43760
31091.1
20530.2
19183
20598.7
17771
23545.8
20402.4
23689.7
18701.6
23286.1
22273.7
21360.3
21970.1
26019.6
24325.5
30441.4
31422.1
34869.2
36680.6
24094.8
25548.8
21680.7
21357.3
24861.5
25836.1
13848.1
6753.64
13211
7538.46
14264.2
6784.12
13333.7
7438.18
14369.9
6782.16
13676.8
7813.64
13522.9
8205.8
13804.9
8041.31
20199.3
15937
20872.8
16298.1
23448.9
20030
24681.6
20322.1
19384.6
12455.7
19507.6
12008.8
21906.4
16422.6
22421.5
16249.4
26048
20446.5
26359.1
20253.4
19631.6
12613.4
19727
12502.5
11380.7
6610.54
8910.77
5255.34
10202.1
5775.67
8376.33
4851.59
11874.3
7080.67
9116.08
5417.23
11932.5
7297.08
9044.58
5404.65
1913.75
880.6
3319.66
1736.89
2004.93
1048.65
3493.79
2023.2
2413.44
1560.02
3825.87
2582.62
10236.1
17613.4
6973.84
6420.95
4327.74
16505.3
10270.5
5345.63
5280.45
3406.2
18180.5
13137.6
9624.03
6875.98
4114.96
387.232
182.752
977.411
648.133
518.454
233.979
1265.76
863.246
897.189
462.24
1759.5
1227
15598.2
13049.9
9280.3
7428.29
5260.41
4249.67
4165.22
2889.68
2650.38
1841.66
15316.3
12074
10618.3
7715.99
7409.81
5178.96
5119.46
3477.68
3322.71
2532.85
11617.8
7654.09
12049.6
7877.13
15523.9
11298.5
15934.2
11745.4
8964.86
5728.14
8446.96
5449.2
12253.2
7956.32
12185.5
7946.51
16073.3
12261.7
15967.1
12276.2
9260.33
5776.2
9215.88
5814.44
6217.16
3971.86
3951.33
3141.59
5842.47
3709.78
3751.55
2878.61
6534.98
4102.21
4057.26
3309.3
6644.24
4090.06
4208.3
3334.67
269.767
186.555
126.02
1262.57
496.367
323.067
267.282
218.447
158.593
1453.97
623.428
423.913
443.049
390.919
321.268
1755.68
843.166
597.294
9603.07
6577.35
4882.61
5384.91
3743.34
2862.62
3176.15
2215.69
1735.36
2129.57
1456.03
1110.47
2215.04
1134.49
799.331
8706.11
5702.76
4003.72
5217.88
3329.9
2363.11
3434.17
2140.11
1525.3
2556.21
1547.59
1067.3
2927.69
1333.82
885.246
2874.1
1175.45
473.108
175.582
3279.09
1304
510.353
185.364
2877.78
1172.69
473.193
175.693
3333.94
1333.44
529.333
194.224
2864.02
1156.64
488.841
186.76
3401.82
1346.52
562.166
213.017
3663.11
1423.72
548.006
197.418
3704.76
1454.7
544.171
193.699
3003.44
1231.94
520.028
196.938
2430.13
1052.26
461.968
178.952
2618.84
1101.57
485.472
192.321
2249.31
990.326
443.254
174.972
3243.39
1320.46
534.835
196.495
2526
1091.72
469.939
180.213
3345.1
1366.75
543.312
199.367
2550.89
1112.91
477.439
184.583
2079.45
965.459
421.073
164.391
1367.47
738.508
358.401
147.357
2082.3
960.588
421.635
165.136
1428.59
752.818
362.216
148.658
2141.15
963.461
431.672
170.731
1608.06
797.179
376.177
152.761
2115.17
937.808
426.771
174.485
1769.39
830.81
395.697
159.167
1994.46
910.435
418.861
170.724
836.476
577.885
275.075
73.4626
428.679
498.448
243.797
67.7577
931.326
607.867
285.589
77.734
513.433
529.278
252.822
70.0296
1126.41
663.624
299.753
79.0329
677.932
583.862
265.625
72.1584
1390.14
734.971
325.311
87.0295
892.009
650.714
284.951
76.9169
1606.94
805.702
357.243
100.211
1034.39
710.837
303.483
81.3481
1783.3
885.472
370.994
98.8561
1109.07
788.615
335.72
88.898
1718.31
853.522
363.29
98.0973
1043.51
755.98
320.342
84.9847
1811.95
902.644
369.031
93.6887
1128.71
809.552
341.553
89.4184
1844.04
915.217
373.775
94.5324
1166.35
823.038
347.115
90.722
65.7163
26.8705
10.2772
3.60917
0.865482
66.9269
27.1084
10.3341
3.62372
0.868403
66.6541
27.332
10.4127
3.64707
0.873408
69.0691
27.7005
10.5029
3.67196
0.87865
69.3034
27.8771
10.559
3.68862
0.882245
72.1707
28.2399
10.6638
3.72024
0.889163
71.5187
28.745
10.8603
3.78259
0.902994
72.3341
29.2866
11.0756
3.85437
0.919372
71.8491
28.5246
10.7586
3.7483
0.895204
72.4379
28.8203
10.8536
3.77636
0.901251
71.5604
28.2154
10.6531
3.71579
0.888061
72.0749
28.5524
10.7551
3.74539
0.894395
71.9611
28.9434
10.9258
3.80225
0.907267
73.6086
29.2075
10.9952
3.82232
0.911612
73.65
29.4905
11.1232
3.86745
0.922169
75.3169
29.7037
11.1619
3.87675
0.924071
64.765
26.6268
10.2165
3.59394
0.862487
64.0425
26.469
10.1772
3.58415
0.860574
65.7647
26.9997
10.3245
3.62362
0.868608
65.0117
26.782
10.266
3.60826
0.865502
67.9202
27.5754
10.4765
3.66523
0.877274
67.1076
27.3383
10.4121
3.64753
0.873582
69.9819
28.0762
10.6104
3.70278
0.88521
69.4468
27.9182
10.5648
3.68962
0.882396
71.548
28.3357
10.6847
3.72425
0.889801
19548.1
30335.7
20027.8
30276
20462.1
29842.5
20288
29033.5
18694.7
26967.2
16617.8
18995.7
16839.1
20339.3
16632
18648.8
16932.9
18794.1
18165.5
3187.12
721.163
178.156
35.4213
20065
5937.23
1526.72
381.222
75.949
18061.8
3146.74
711.219
175.744
34.9397
19893.2
5854.25
1507.04
376.081
74.6255
17732.2
3069.77
693.734
171.903
34.2734
19464.9
5723.46
1476.59
369.521
73.5588
17027.5
2911.87
658.907
164.345
32.9553
18658
5495.53
1425.13
358.884
71.7917
15749.5
2644.67
603.288
152.377
30.8288
17269.5
5138.55
1347.37
342.859
69.0754
13671.1
2415.31
577.359
150.236
30.8725
13847.4
4391