/*--------------------------------*- C++ -*----------------------------------*\
  =========                 |
  \\      /  F ield         | OpenFOAM: The Open Source CFD Toolbox
   \\    /   O peration     | Website:  https://openfoam.org
    \\  /    A nd           | Version:  11
     \\/     M anipulation  |
\*---------------------------------------------------------------------------*/
FoamFile
{
    format      ascii;
    class       volScalarField;
    location    "0.5";
    object      gradTx;
}
// * * * * * * * * * * * * * * * * * * * * * * * * * * * * * * * * * * * * * //

dimensions      [0 -1 0 1 0 0 0];

internalField   nonuniform List<scalar> 
5712
(
-9223.34
-11830.8
-21296
-31664.8
-32532.1
-55867.4
-24413.1
-61508.8
-19451.5
-42605.8
-29079.6
-44579
-25688.1
-34422
-11437.3
-13284.5
-21849.6
-24999.6
-27476.8
-27413.6
-20985
-25182.9
-30547.5
-27237.3
-7906.27
-6322.39
-9798.15
-6955.72
-18594
-15598.2
-31240.4
-23577.5
-24031.6
-25137.3
-27918.7
-27564.2
-10771.2
-8059.34
-54850.6
-73405.1
-36210.9
-44277.7
-71043.9
-92536.5
-37299.6
-42801.4
-42050.3
-59369.3
-37699.3
-49485
-22639.9
-35886.5
-4666.45
-1617
-4867.98
-1796.85
-13991.9
-5799.7
-18835.8
-7132.83
-14164.2
-5442.24
-14315.8
-4745.74
-23863.4
-7830.95
-30767.7
-10679.4
-32385.8
-16846.2
-30198.3
-17970.9
-28663.9
-18466.7
-25825.8
-18537.9
-25479.5
-15733.1
-25467.9
-13935.8
-31561.4
-19656.2
-31854.6
-19766.4
-27674.9
-19460.5
-28148.3
-19416.6
-27573.4
-17722.6
-28624.3
-18125
-26820.9
-12470.6
-13837
-17864.5
-26641.8
-13709.2
-12337.2
-18276.3
-28505.1
-12311.5
-15392.7
-17895.9
-30042.3
-12588.2
-16561
-18580
-5956.11
-6497.63
-2091.21
-4398.36
-16999.3
-17883.1
-7067.16
-13331.6
-21573.7
-23150.5
-11793.5
-20353.7
-12159.3
638.427
-16875.6
-23696.9
-14609
1269.36
-5785.07
-15551.4
-27206
-23221.8
-12399.4
-16543.7
-16502.2
-16058.5
-26222.7
-5220.24
-3878.77
-3142.49
-2939.95
-14264.6
-10722.2
-9565.54
-8589.77
-17148.5
-12520.7
-12625.8
-10583.6
-4703.53
-6160
-10845.7
-11256.6
-16906.2
-14485.1
-20155.4
-15953.7
-16856.5
-13587.2
-9520.6
-8267.78
-13514.1
-8325.59
-13942.7
-7947.5
-13712.5
-7585.34
-18204.2
-10649.3
-11749.5
-3186.78
-10901
-9390.11
-13137.3
-14422.1
-14694.7
-18618.8
-10028.3
-8556.78
-11638.2
-1430.29
-9982.63
-15518.6
-9569.62
-16867.2
-14631.5
-23289.7
-14822.4
-25018.2
-8999.36
-14866
-8481.67
-16058.8
-13123.4
-7931.03
-19210.9
-6682.1
-12444.8
-495.531
-16577.9
182.093
-12916.4
-12132.4
-20098.7
-8488.49
-11266.7
-14363.7
-18344
-10976.4
-2613.37
-1956.71
-1337.79
-1982.97
-1546.56
-1119.9
-7346.39
-4576.65
-2975.83
-5369.18
-3244.32
-2128.35
-7839.07
-5064.51
-3871.42
-6345.87
-3750.19
-2856.65
-4388.08
-2659.96
-2124.83
-8611.6
-4414.23
-2819.16
-9759.28
-4983.58
-2919.73
-10366.6
-5856.38
-3995.31
-8764.63
-4251.61
-2503.9
-11750.1
-7382.81
-4667.39
-9007.02
-5545.26
-3154.48
-9647.51
-5476.44
-2872.05
-9536.81
-5113.6
-2559
-11911.5
-5414.38
-2099.74
-12146.8
-15768.7
-10132.3
-12530.3
-14679.5
-20406.8
-13699.8
-18729.3
16.1482
-634.596
474.727
-218.522
-3063.76
-3082.99
-1545.1
-930.545
-1483.18
-3044.64
-10209
-14062.5
-6189.73
-3988.89
-12021.5
-12086.1
-19925.3
-22059.9
125.491
4027.06
-8525.98
-7947.85
-7193.89
-5448.7
-1001.98
-514.5
-819.037
-432.547
-2169.79
-317.33
-301.004
273.85
-8878.19
-1987.41
-6550.76
-1720.03
-8899.27
-2510.35
-10504.3
-2927.29
-10765.3
-12138.4
-9850.78
-11822
-17843.7
-17013.3
-16998.8
-16067.7
-6215.05
-8362.8
-7157.49
-8310.65
-10306.7
-11412.8
-11114.8
-11372.7
-17756.6
-15796.1
-18492.9
-15712.1
-6175.03
-8081.5
-6496.36
-8069.08
-28.5127
-686.82
-5382.55
-2279.93
242.095
-430.961
-4958.99
-1988.67
-323.954
-858.92
-5457.32
-2467.93
-524.243
-941.44
-5359.42
-2470.76
394.009
449.788
-160.239
5.99044
1849.25
1723.23
67.698
280.887
136.506
1015.44
-1018.77
-436.749
8368.37
9578.19
3942.81
2765.36
393.456
10335.6
8966.82
2858.36
3904.21
690.337
-11165.9
-8076.05
-6065.45
-4615.37
-1898.28
347.08
241.142
49.2767
43.4237
1184.87
859.672
183.305
142.236
1216.21
1157.78
-118.726
-52.6519
4158.02
1124.29
5697.22
2635.58
1913.76
993.687
2035.47
1332
75.6642
-148.117
-4194.16
-2382.15
-1682.15
133.705
-1137.43
121.527
-986.024
-113.026
-514.171
-385.391
-4896.82
-3751.02
-8706.65
-4822.53
-8207.44
-6903.82
-12075.6
-8693.23
-5813.43
-3043.44
-3059.05
-2458.45
-10100.6
-4290.18
-10911.7
-4719.25
-13334
-8967.38
-14063.1
-9643.23
-6977.17
-2585.78
-7643.82
-2912.27
-3504.22
-2143.65
-1477.66
-1814.06
-2187.55
-1874.29
-1217.45
-1658.1
-4021.94
-2071.31
-1637.51
-2074.88
-4861.49
-2211.85
-2283.24
-2096.84
153.188
110.32
103.764
16.7678
37.1604
35.0671
579.217
433.275
356.05
66.5703
112.351
96.2898
867.563
660.644
526.965
-79.6312
116.478
127.962
239.401
219.221
30.9614
1120.69
969.047
742.29
721.863
674.648
568.828
915.391
722.28
575.626
-256.415
34.5527
57.0704
-3029.49
-1509.1
-743.569
-183.027
239.1
385.436
-80.6746
304.777
400.988
-75.5588
248.057
297.692
-501.357
35.0217
88.2444
-12.1726
-3.4365
-0.798149
1.10062
74.3483
23.9335
12.4823
6.44805
-54.44
-15.8645
8.37936
10.0727
90.4344
29.9939
32.3128
18.9243
-177.791
-46.0855
11.8956
21.245
-77.7415
-13.108
10.3878
10.0753
-102.899
-17.9178
-4.96075
-1.09211
-164.808
-39.2039
0.71195
5.82514
-496.776
-128.811
-33.8631
-4.1519
-618.839
-153.439
-50.1903
1.71942
-351.502
-86.3538
-13.3024
11.1455
-508.615
-122.934
-48.7695
-2.31005
-519.384
-135.661
-24.274
4.2712
-684.075
-173.205
-53.3128
4.80826
-535.113
-143.56
-20.8415
9.10395
-715.838
-185.03
-56.9091
4.1894
-8.98943
-3.50713
-0.0704452
2.05154
12.0478
3.29257
-1.12866
1.57253
0.785594
-2.42921
5.68031
8.10526
57.9528
16.1509
0.314931
5.17639
-205.465
-57.7494
-8.30782
9.1468
-94.3242
-23.9894
-10.0244
7.4477
-77.1776
-11.7347
6.31294
13.9432
-22.8717
-0.695784
-9.99146
6.81692
-431.223
-102.528
-41.4678
6.2922
25.9085
8.29819
2.17578
2.20427
48.6762
15.2186
4.43884
1.7149
52.658
17.893
1.85375
4.48585
128.339
40.4642
10.3975
4.06405
24.6713
13.5881
-1.0956
6.14659
172.022
56.0583
14.622
5.78332
-45.5916
2.36311
-4.28926
8.32184
148.736
57.2526
14.9196
6.19853
-206.372
-31.0221
-22.8353
2.85187
59.8854
42.3737
8.82845
4.61562
-461.78
-88.9611
-37.4244
0.192223
-143.059
-14.5763
-4.98837
0.245734
-353.388
-59.0971
-32.2213
-0.136567
-70.3932
9.86766
1.5597
2.47097
-540.808
-113.134
-42.6392
-0.0636892
-193.495
-31.8482
-8.58566
-0.994994
-585.266
-129.302
-46.7368
-1.65061
-226.261
-43.7224
-11.4663
-1.96256
0.782289
0.241127
0.0706139
0.0207432
0.00735017
1.27776
0.371998
0.109737
0.0326168
0.0116697
1.86011
0.53353
0.155737
0.045966
0.0163629
2.47585
0.746596
0.226364
0.0683582
0.0247123
2.3137
0.633886
0.185295
0.0550342
0.0196986
2.8918
0.924916
0.285356
0.0869918
0.0316565
1.10198
0.398873
0.12805
0.0399323
0.0147756
0.722439
0.210983
0.065222
0.0203245
0.00756571
1.72847
0.574377
0.176043
0.0533901
0.0193682
0.67346
0.218979
0.067005
0.0203423
0.00739168
2.51037
0.746248
0.223583
0.0671868
0.0242409
0.823036
0.250599
0.0745847
0.0222887
0.00801125
1.04771
0.321505
0.0985833
0.0301841
0.0110512
0.606837
0.173194
0.0528891
0.016283
0.00599736
0.894029
0.195041
0.0530645
0.015727
0.00570858
0.448905
0.0884855
0.0229289
0.00669834
0.00242436
0.654544
0.196407
0.0563381
0.0162611
0.0056851
0.631263
0.181889
0.0509408
0.0144413
0.00498258
1.80276
0.49705
0.14037
0.0405151
0.0142056
1.74925
0.474024
0.131155
0.0372496
0.0129109
2.12285
0.563788
0.159374
0.0463439
0.0163609
2.35317
0.620822
0.172811
0.0496744
0.0174062
2.34368
0.646285
0.18754
0.055441
0.0198075
1.75122
0.463454
0.130461
0.0378808
0.0133773
1.17002
0.3405
0.100913
0.0301393
0.0108396
-32.5315
-319.873
145.974
-726.095
646.189
-819.569
1599.13
-391.499
2362.35
975.41
-434.913
-1463.77
1563.31
1268.63
-1308.72
-2622.16
-1850.28
-3063.72
-1300.84
-338.578
-91.9367
-29.567
-14.0186
-323.008
-193.904
-34.2501
-13.0283
-7.42042
-4003.42
-1036.3
-282.577
-90.7607
-43.1769
-756.918
-270.819
-87.072
-28.9117
-14.5193
-6703.7
-1742.43
-478.026
-154.533
-73.6512
-1311.63
-481.361
-150.529
-52.3476
-24.9559
-8953.56
-2342.69
-648.967
-211.739
-101.55
-1641.93
-631.707
-200.921
-70.1943
-33.5034
-11159.1
-2960.16
-830.994
-274.536
-133.006
-1974.71
-800.759
-258.261
-91.0312
-44.0048
-13206.8
-3642.12
-1048.29
-353.416
-173.576
-3273.43
-1144.17
-350.547
-120.292
-58.1009
-12300.9
-3364.04
-958.415
-319.861
-156.012
-2486.01
-959.295
-303.699
-105.788
-51.0329
-13625.2
-3775.77
-1093.13
-370.597
-182.674
-3728.42
-1255.34
-378.19
-128.325
-61.9724
-14206.3
-3913.01
-1136.4
-385.909
-190.425
-3894.22
-1310.54
-396.32
-128.475
-63.9817
-1058.14
-9605.52
-8739.94
-3114.64
1805.47
3063.71
8294.88
12447.3
1138.88
8837.43
-3679.46
1318.26
1977.64
5102.18
10622.9
15611.5
16158.1
20719.4
6609.46
8682.16
-17575.7
-11626.9
-1418.97
-697.845
-459.13
-547.447
-770.549
-9960.73
-7181.62
-6462.17
-5375.14
-3292.23
-2473.51
-3978.31
-1800.4
-1497.77
-1558.11
-1043.57
-16379.1
-6546
-1338.78
-2539.4
-4590.09
-2711.27
-2533.6
-1630.69
-704.021
-929.77
-1354.11
-1513.43
-16972.6
-9862.48
-9095.65
-5819.56
-4779.28
-5990.63
-1493.31
-1447.35
-2736.34
-10841
-7909.96
-5308.22
-3600.99
-2174.68
-6904.65
-4281.41
-2786.34
-1679.44
-673.381
-1173.04
-896.957
-616.28
-356.747
-116.959
-589.931
-461.229
-322.663
-188.685
-61.9321
-386.748
-300.782
-209.066
-121.513
-39.7227
-466.388
-367.43
-258.565
-151.666
-49.7996
-646.41
-500.835
-347.271
-201.71
-65.9824
-5616.76
-3620.92
-2276.49
-1527.77
-1127.72
-3387.56
-2065.96
-1156.37
-720.519
-395.44
-3799.95
-2188.15
-1338.65
-768.13
-305.598
-2503.57
-1455.75
-805.958
-449.209
-199.307
-1411.59
-778.125
-410.617
-214.858
-81.0868
-1815.87
-1240.66
-775.801
-422.764
-136.81
-2573.83
-1589.45
-960.352
-521.068
-175.537
-1109.26
-641.896
-363.172
-184.273
-58.1857
-1153.02
-819.254
-526.905
-290.951
-93.5052
-1157.63
-794.491
-494.517
-265.819
-84.0724
-814.513
-585.487
-379.333
-209.792
-67.0994
-9604.93
-6263.87
-4102.53
-2687.5
-1768.5
-4382.28
-2871.13
-1834.97
-1056.78
-402.585
-1036.11
-742.637
-483.131
-270.261
-88.2224
-1993.16
-1452.26
-960.814
-545.454
-180.276
-3462.06
-2456.78
-1604.24
-913.79
-313.394
-2135.97
-1564.74
-1042.09
-595.465
-197.642
-2030.09
-1509.61
-1016.39
-583.437
-192.631
-1324.93
-995.124
-673.254
-385.987
-126.336
-570.775
-425.967
-285.159
-161.396
-52.1622
-771.964
-591.319
-405.628
-233.768
-76.2128
-1077.19
-790.484
-522.969
-294.636
-95.5709
-1225.46
-916.568
-617.269
-352.438
-115.074
-10342.4
-7250.71
-4870.22
-3191.82
-1922.43
-6218.89
-4004.63
-2612.45
-1559.88
-634.146
-6020.73
-4210.82
-2690.13
-1586.57
-627.066
-4180.24
-2848.32
-1860.83
-1078.88
-386.35
-3657.07
-2632.44
-1739.09
-998.308
-341.179
-4268.61
-2896.56
-1883.4
-1087.42
-384.504
-1184.94
-870.887
-579.79
-330.155
-108.67
-1200.01
-918.587
-630.527
-364.044
-118.927
-2190.21
-1623.92
-1089.25
-622.922
-204.875
-8199.32
-16866.2
-17117.7
-47820.9
-16166.7
-61206.4
-9016.54
-21934.9
-16445.6
-12793.9
-28067.3
-23372.4
-15564.9
-13966.8
-30213.2
-23319.9
-6208.87
-4770.95
-12285.9
-8781.14
-13916.8
-10673.7
-37977
-28971.9
-22354.8
-16441.2
-23823.2
-14300
-1792.94
-5981.08
-58176
-74869.7
-35204.4
-44212
-73891
-93813.4
-36080.8
-42535.6
-44745.6
-60783.9
-36862.2
-49623.7
-25582.4
-37368.7
-3243.61
-912.957
-5728.19
-1994.35
-10986
-5134.59
-22235.5
-8225.75
-5243.11
-3053.32
-11946.9
-3920.36
-24222.2
-7840.67
-31226.1
-10814.9
-21445.7
-11989.9
-26029.5
-15543.5
-17924.1
-13190.8
-21570.1
-16018.7
-22560
-13788.7
-17544.7
-10162.2
-30028.7
-18583.3
-31494.8
-19477.4
-25992.2
-18341.8
-27699.6
-19113.3
-26620.8
-16854.6
-28432.8
-17889.7
-25776.9
-12254.9
-12606.6
-17609
-22877.8
-12742.3
-9986.1
-17691.3
-28463.9
-12353.7
-14851.2
-17801.8
-30136.5
-12636.1
-16423.2
-18560.4
-1903.35
-1866.67
-582.341
-2565.69
-7661.21
-8271.13
-5193.39
-10980.9
-5527.42
-6661.78
-8665.7
-16560.3
-13347.8
-8751.25
-12808.6
-17198.7
-13085.2
-6224.54
-7988.5
-10278.3
-19686.5
-21235.4
-14452.8
-14177.9
-11935.9
-11690.6
-24666.5
-2070.74
-1505.45
-1333.6
-1461.63
-7223.77
-5433.31
-6667.62
-5827.77
-2538.99
-765.454
-8339.99
-6542.23
-8863.52
-9008.95
-8836.13
-8040.6
-9215.06
-6563.64
-12540.9
-9483.97
-14323.1
-10927.4
-11615.7
-9945.5
-11328.6
-6801.86
-9873.38
-5067.7
-10152.4
-5115.51
-16964.5
-9277.35
-10038.7
-3179.76
-9563.76
-8911.05
-12660.4
-14761.5
-13665.6
-18163.6
-8753.16
-8125.1
-9696.63
-1341.25
-9248.21
-15144.4
-9341.92
-16739.1
-13940.6
-22870.4
-14594.2
-24850.9
-8334.45
-14589.5
-8280.76
-15966.9
-12350.9
-7723.97
-19090.7
-6702.31
-11130.8
-720.252
-16452.9
-576.605
-12531.1
-11984.9
-20047.2
-8453.78
-11139.6
-14314.9
-18325.5
-10971.8
-1345.32
-1214.63
-1160.47
-1290.71
-4050.65
-3042.13
-4120.8
-3751.56
-0.797822
-736.634
-4814.44
-4891.96
-8255.91
-6801.15
-7259.35
-5266.76
-5128.14
-3731.1
-7401.34
-5717.03
-8964.35
-6220.99
-14046.2
-10165.1
-7495.92
-4771.18
-7104.21
-3843.36
-7020.83
-3168.06
-8795.64
-2583.84
-5908.32
-9278.1
-5043.76
-10092.1
-10111.7
-11873.7
-11758.3
-15719.1
-853.007
-454.968
-387.937
-210.029
-3310.17
-1860.38
-2330.91
-708.119
-718.661
-1376.36
-7931.45
-8106.12
-3404.6
-2789.55
-10498.2
-11563.3
-18254.5
-21518.6
698.867
4220.43
-7129.1
-7408
-6330.23
-5147.37
-725.636
-557.191
-695.311
-500.993
-1233.62
-482.875
-98.527
80.3711
-6360.11
-2121
-5468.35
-1719.43
-7965.58
-2411.87
-10093.4
-2861.41
-5497.79
-9622.88
-7611.96
-10340.5
-9797.44
-12609.3
-13651.8
-13905.7
-4888.61
-7539.2
-4114.58
-7271.64
-9148.19
-10670.2
-10744
-11155.3
-16227.6
-14798.8
-18037.3
-15433.9
-5431.04
-7614.2
-6236.24
-7923.09
198.148
-722.06
-5119.93
-2307.12
239.229
-678.29
-4914.31
-2142.11
-100.04
-851.149
-5250.38
-2456.91
-416.299
-930.201
-5287.36
-2463.22
-699.996
-692.578
-537.329
-484.557
-1377.7
-1282.27
-589.661
-510.881
-6102.47
-5159.83
-1923.66
-1678.72
-2688.42
-3790.64
-2988.7
525.871
-353.925
-52.7466
-695.262
-3290.51
2042.72
102.724
-14823
-11060
-8257.89
-5683.53
-2369.02
-617.54
-465.933
-458.293
-450.103
-1173.88
-850.429
-593.001
-677.246
-4653.6
-3865.19
-1605.62
-1698.34
-3856.05
-5163.15
-2030.76
-3495.78
-3445.63
-3350.75
-304.729
-607.828
-722.46
-1047.81
-8751.48
-6127.39
-6041.62
-3712.75
-4266.13
-2613.5
-2812.38
-1689.5
-1159.67
-1033.53
-6182.33
-5334.35
-8666.83
-5140.76
-9076.11
-8428.93
-11633.2
-8861.26
-6004.06
-3348.57
-4191.77
-3647.29
-9833.69
-4351.73
-10793.4
-4700.27
-12838.2
-8893.92
-13878.5
-9575.02
-6894.58
-2685.65
-7587.86
-2916.23
-3740.07
-2368.38
-1677.54
-1999.82
-2996.39
-2643.69
-1639.61
-2090.96
-4052.3
-2163.94
-1710.95
-2156.77
-4850.11
-2226.04
-2296.86
-2113.44
-313.257
-272.051
-316.799
-266.583
-731.897
-804.097
-466.199
-415.477
-3288.79
-2757.35
-1048.32
-507.14
-5565.48
-4538.21
-3973.41
-3001.4
-2864.87
-2202.76
-842.461
-807.241
-961.294
-489.922
-6081.14
-4251.91
-3081.01
-2116.43
-2098.77
-1368.45
-1221.11
-706.006
-948.926
-72.7097
-54.0427
-18.6261
-6.13001
-0.596394
-2.02102
-4.51886
3.09225
3.5233
-157.758
-53.1526
-2.48779
7.15009
-46.9529
-24.5329
14.9616
13.5727
-307.415
-93.4597
-0.693319
19.004
-209.877
-71.7321
-11.4465
2.07366
-169.856
-51.2088
-18.2749
-5.83302
-186.386
-52.0503
-4.6347
3.85693
-551.27
-156.657
-45.9029
-9.24527
-653.055
-169.303
-56.5903
0.281296
-483.386
-134.038
-29.4129
5.73363
-574.282
-146.284
-57.2488
-3.69982
-548.815
-153.95
-31.8983
1.63339
-700.395
-182.799
-57.7207
3.50387
-544.845
-150.478
-23.7952
8.06604
-720.609
-188.301
-58.4747
3.72345
-57.7636
-18.2901
-4.27381
1.12137
-46.5423
-12.8465
-6.25443
0.458052
-141.828
-44.7819
-5.71062
5.42511
-108.624
-30.1688
-13.9159
1.97912
-349.188
-100.28
-19.3537
7.14439
-296.568
-79.6184
-27.0773
3.98424
-335.148
-89.0777
-15.4048
8.65477
-253.36
-64.1177
-27.8972
4.64525
-560.489
-139.334
-52.8378
6.18014
-31.8923
-8.18637
-2.38228
0.986753
-10.1973
-2.67639
-0.503619
0.0723773
-99.4683
-25.1497
-11.0522
0.79814
-34.9455
-8.63949
-3.54175
-0.527239
-190.007
-46.0339
-18.9377
1.08638
-77.808
-17.5703
-5.72709
-0.805531
-296.306
-68.3389
-24.7581
3.1066
-146.755
-29.6134
-8.47205
-1.22419
-403.541
-90.0217
-42.0373
-3.00965
-199.789
-37.8949
-13.9296
-2.94148
-550.243
-123.915
-50.3164
-4.15649
-227.032
-47.0478
-15.8565
-3.76272
-510.548
-112.899
-50.533
-6.04446
-233.088
-45.9122
-15.5274
-3.59124
-580.023
-131.014
-49.7982
-2.52114
-227.963
-47.1608
-14.0663
-3.02783
-595.256
-134.434
-48.9088
-2.41522
-234.132
-47.6838
-12.9844
-2.54502
0.166276
0.0128131
-0.00535108
-0.00353257
-0.00181966
0.173329
-0.0151627
-0.0167424
-0.0076419
-0.00355192
0.455259
0.0124112
-0.0174241
-0.00941968
-0.00459616
0.115742
-0.0909884
-0.0495576
-0.0200226
-0.00886763
0.629637
-0.000603813
-0.0258728
-0.0126039
-0.00593902
-0.239057
-0.172358
-0.0752879
-0.0286347
-0.012354
-0.431133
-0.136904
-0.0494108
-0.0174302
-0.00720789
-0.019391
-0.0533674
-0.0234283
-0.00858615
-0.00358691
-0.184821
-0.0855075
-0.0399987
-0.0157605
-0.00692211
-0.0403653
-0.0300396
-0.0148515
-0.00591479
-0.0026034
0.000908686
-0.0991226
-0.0487271
-0.0192334
-0.008466
0.0186503
-0.0212984
-0.0132998
-0.00562268
-0.00254682
-0.0062993
-0.0501667
-0.0246868
-0.00961577
-0.0041714
0.0197856
-0.0331032
-0.0153677
-0.00576533
-0.0024497
0.441263
0.0317527
-0.00180311
-0.00214795
-0.00117419
0.261792
0.0207043
0.000139138
-0.000731166
-0.000438972
0.193676
0.0218623
-0.00120097
-0.00195893
-0.00114982
0.127337
0.0173008
-0.000339009
-0.00139945
-0.000886843
0.52031
0.0360556
-0.00876895
-0.00644348
-0.0033985
0.367685
0.0321173
-0.00573687
-0.00503444
-0.00278737
0.723969
0.0378888
-0.0130006
-0.00828266
-0.00420017
0.423836
0.0101352
-0.0164819
-0.00902458
-0.00448103
0.180564
-0.0545804
-0.0334146
-0.0139
-0.00626901
0.171859
-0.0201157
-0.018325
-0.00825443
-0.00385731
-0.0876199
-0.052136
-0.0220005
-0.00842329
-0.00367991
155.69
-173.186
562.417
-391.079
1089.41
-451.554
1856.49
-167.14
2363.66
884.958
-382.056
-1485.67
1478.35
947.687
-1250.43
-2595.88
-1828.56
-3050.13
-1292.81
-340.216
-92.6865
-29.7734
-14.073
-305.771
-191.843
-33.9512
-13.0166
-7.44834
-3991.5
-1042.59
-285.051
-91.4265
-43.3576
-722.192
-266.677
-86.5322
-28.84
-14.5211
-6701.48
-1754.18
-482.185
-155.63
-73.949
-1284.45
-478.981
-150.313
-52.3503
-24.968
-8980.71
-2360.11
-654.341
-213.089
-101.904
-1652.21
-634.369
-201.389
-70.2767
-33.5207
-11241.5
-2985.11
-837.525
-276.076
-133.4
-2036.04
-809.543
-259.501
-91.2178
-44.0391
-13317.6
-3667.64
-1053.95
-354.625
-173.861
-3296.46
-1149.44
-351.473
-120.45
-58.1262
-12426.7
-3393.02
-965.1
-321.336
-156.373
-2550.81
-968.815
-305.048
-105.981
-51.0637
-13698.6
-3792.81
-1096.84
-371.376
-182.855
-3733.57
-1257.46
-378.627
-128.411
-61.9897
-14232.8
-3919.1
-1137.72
-386.191
-190.494
-3894.87
-1311.12
-396.465
-128.497
-63.9899
-779.423
-9318.7
-7907.96
-2366.21
-1786.12
-794.605
-4092.74
-2515.79
-8161.28
-7488.97
-4029.47
-2881.6
-14.3451
-28.9212
-65.1255
-139.061
-278.381
-522.762
-12.2779
-34.8424
-91.7401
-206.259
-408.961
-726.036
-9.32412
-3.9077
-20.6331
-12.1496
-49.4691
-35.2159
-110.011
-89.9912
-214.494
-179.978
-402.475
-308.986
-887.615
-1364.16
-2003.89
-4039.98
-5617.79
-6862.45
-1152.07
-1625.61
-2035.96
-2329.57
-2501.07
-2571.13
-12.5708
-10.2432
-7.45687
-4.4913
-1.49558
-25.2644
-20.5067
-14.8679
-8.92547
-2.9667
-56.6866
-45.8101
-33.0643
-19.7778
-6.56099
-120.498
-96.8566
-69.5321
-41.4169
-13.7086
-239.769
-191.377
-136.451
-80.8602
-26.6935
-446.458
-352.978
-249.453
-146.895
-48.3509
-10.7379
-8.72831
-6.33783
-3.80938
-1.26703
-30.3616
-24.5703
-17.7597
-10.6354
-3.5303
-79.643
-64.162
-46.1668
-27.5489
-9.12707
-178.225
-142.79
-102.184
-60.7224
-20.0741
-351.284
-279.524
-198.729
-117.525
-38.7592
-618.977
-488.428
-344.586
-202.686
-66.6819
-8.18544
-6.68463
-4.87755
-2.94331
-0.981136
-3.43387
-2.80776
-2.05142
-1.23924
-0.413335
-18.0634
-14.7008
-10.6879
-6.43042
-2.14
-10.6526
-8.68606
-6.32761
-3.81317
-1.2701
-43.1656
-34.9883
-25.3308
-15.1887
-5.04519
-30.7807
-25.0016
-18.1393
-10.895
-3.62222
-95.5793
-77.068
-55.498
-33.136
-10.9813
-78.3118
-63.2645
-45.642
-27.2892
-9.05008
-185.278
-148.367
-106.109
-63.0183
-20.8258
-155.778
-125.024
-89.5949
-53.2836
-17.6197
-344.576
-273.113
-193.406
-114.027
-37.5466
-265.268
-210.839
-149.635
-88.3254
-29.0925
-748.982
-584.622
-408.565
-238.853
-78.4133
-1130.84
-867.344
-597.694
-346.721
-113.73
-1617.57
-1211.56
-820.813
-472.895
-155.863
-3125.52
-2267.91
-1508.66
-868.205
-293.016
-4070.7
-2839.74
-1859.05
-1080.1
-386.461
-4766.27
-3250.07
-2108.78
-1234.65
-459.373
-972.852
-759.884
-531.359
-310.755
-102.017
-1355.67
-1045.65
-723.746
-420.801
-137.979
-1668.84
-1266.65
-866.304
-500.915
-164.442
-1860.19
-1381.16
-931.078
-536.14
-177.351
-1911.54
-1374.43
-910.716
-524.63
-177.846
-1893.17
-1326.22
-867.191
-500.73
-173.946
-14.4218
-29.2374
-65.9989
-141.242
-283.372
-531.973
-12.3751
-35.2476
-92.8133
-208.607
-413.114
-731.703
-9.38554
-3.94972
-20.9216
-12.3987
-50.4127
-36.265
-112.819
-93.7111
-222.523
-194.678
-419.145
-344.8
-900.894
-1380.96
-2021.81
-4032.06
-5582.87
-6841.22
-1157.75
-1629.34
-2036.53
-2324.08
-2490.25
-2565.39
-12.643
-10.3075
-7.50807
-4.52444
-1.50706
-25.5619
-20.7708
-15.0778
-9.06106
-3.01364
-57.507
-46.5366
-33.64
-20.149
-6.68929
-122.546
-98.6686
-70.9658
-42.3396
-14.0272
-244.465
-195.536
-139.742
-82.9765
-27.4241
-455.26
-360.889
-255.787
-151
-49.7737
-10.8296
-8.81008
-6.40308
-3.85168
-1.28169
-30.7449
-24.9126
-18.0331
-10.8127
-3.59179
-80.6628
-65.0765
-46.8997
-28.0252
-9.29243
-180.475
-144.825
-103.826
-61.7942
-20.4469
-355.338
-283.256
-201.784
-119.537
-39.4626
-624.737
-493.929
-349.219
-205.794
-67.7781
-8.24272
-6.73499
-4.91722
-2.96879
-0.989926
-3.47263
-2.84142
-2.07763
-1.25592
-0.419063
-18.3313
-14.9351
-10.8715
-6.54781
-2.18041
-10.8809
-8.88279
-6.47953
-3.90923
-1.30297
-44.0371
-35.7456
-25.9203
-15.5636
-5.17388
-31.736
-25.818
-18.7645
-11.2876
-3.75607
-98.1649
-79.3058
-57.2319
-34.2345
-11.3576
-81.6926
-66.1462
-47.8417
-28.6669
-9.51909
-192.619
-154.664
-110.943
-66.057
-21.8624
-168.943
-136.045
-97.8546
-58.3812
-19.3415
-359.937
-286.392
-203.663
-120.501
-39.7594
-297.261
-237.537
-169.567
-100.585
-33.2239
-762.124
-596.817
-418.57
-245.442
-80.7151
-1148.45
-884.436
-612.158
-356.427
-117.157
-1638.66
-1233.6
-840.32
-486.335
-160.687
-3130.82
-2282.2
-1525.91
-881.981
-298.417
-4054.5
-2836.93
-1863.93
-1086.65
-389.668
-4754.35
-3245.04
-2108.2
-1235.92
-460.256
-979.168
-766.366
-537.098
-314.724
-103.437
-1360.95
-1051.89
-729.735
-425.126
-139.559
-1672.05
-1271.76
-871.841
-505.141
-166.028
-1858.86
-1383.06
-934.54
-539.251
-178.611
-1905.51
-1372.2
-910.887
-525.643
-178.409
-1889.63
-1324.43
-866.613
-500.752
-174.049
-17492.4
-11580
-1451.07
-729.399
-546.618
-620.033
-833.77
-10225.4
-9508.26
-7237.86
-7774.71
-3155.96
-5623.82
-2107.3
-2289.57
-1455.2
-16379.6
-6864.27
-1615.38
-2779.18
-4771.11
-2808.89
-2613.1
-1739.97
-881.709
-1082
-1686.51
-1689.74
-16727.6
-9771.6
-9130.29
-5816.61
-4832.85
-6052.36
-1614.56
-1550.66
-2861.76
-10792
-7883.65
-5300.89
-3605.5
-2182.9
-6882.23
-4273.9
-2786.65
-1682.78
-675.33
-1205.72
-927.838
-641.839
-373.638
-122.877
-619.332
-486.907
-342.653
-201.367
-66.2783
-464.705
-365.595
-257.244
-151.041
-49.6557
-531.238
-421.551
-298.972
-176.52
-58.1761
-704.72
-551.124
-385.909
-225.959
-74.2393
-6346.81
-4390.93
-2916.99
-1969.2
-1361.89
-6010.43
-4326.96
-2886.56
-1846.99
-861.735
-4701.89
-3002.94
-1965.24
-1156.33
-432.622
-4972.36
-3478.42
-2307.93
-1400.54
-553.94
-2452.16
-1783.39
-1184.37
-673.756
-221.024
-4031.72
-2747.52
-1794.75
-1019.73
-341.105
-1696.68
-1267.32
-855.653
-490.158
-160.164
-1834.95
-1365.05
-918.742
-525.348
-171.59
-1187.76
-897.273
-610.437
-350.862
-114.504
-9944.31
-6701.96
-4511.1
-2987.82
-1922.92
-4773.25
-3254.04
-2147.03
-1259.25
-474.974
-1291.62
-960.6
-647.736
-371.949
-122.578
-2225.24
-1659.04
-1122.66
-648.066
-215.53
-3672.03
-2665.49
-1778.98
-1029.29
-354.474
-2239.4
-1663.63
-1123.62
-648.997
-216.433
-2112.11
-1587.29
-1080.48
-625.655
-207.443
-1429.51
-1088.16
-746.383
-432.572
-142.346
-731.626
-561.386
-386.691
-223.955
-73.2791
-908.97
-706.4
-491.954
-287.031
-94.2026
-1377.5
-1042.27
-710.811
-409.861
-134.365
-1389.36
-1058.28
-725.969
-420.487
-138.24
-10224.6
-7207.21
-4875.93
-3222.02
-1958
-6187.07
-4005.98
-2629.21
-1578.61
-642.827
-6193.84
-4416.06
-2884.52
-1726.84
-683.42
-4219.37
-2909.74
-1923.52
-1125.41
-403.958
-3735.14
-2720.26
-1818.67
-1053.72
-361.574
-4378.7
-3022.1
-1997.53
-1167.08
-414.385
-1301.82
-975.277
-661.969
-382.541
-126.701
-1296.31
-1002.46
-695.467
-405.025
-132.929
-2315.78
-1739.62
-1182.49
-683.287
-225.835
-132.027
-401.526
-705.129
-1061.9
-1461.14
-1882.12
-3733.04
-9818.83
-8795.7
-3440.62
-12182.6
-10726.2
-11327.8
-12314.5
-3524.01
-2279.3
-8338.64
-4442.96
-14392.4
-11663.7
459.136
-2959.35
-7953.68
-6944.34
-2674.74
-9980.06
-8321.88
-9066.37
-9783.23
-2917.37
-1234.11
-7297.27
-2037.11
-11057.8
-7112.59
2828.01
-2040.74
-5652.07
-4805.33
-1802.26
-7307.43
-4322.2
-6641.07
-6756.25
-2110.76
-1166.69
-4960.3
-2253.16
-7923.6
-2149.23
3011
-1338.82
-3909.58
-3249.37
-1184.79
-4880.76
-1885.25
-4730.64
-4899.42
-1464.67
-1238.17
-3432.53
-2327.41
-6091.71
31.2135
2232.81
-942.472
-2907.33
-2369.16
-846.22
-3263.6
-1130.15
-3607.52
-4107.78
-1035.1
-1393.75
-2178.72
-2276.79
-4794.47
335.318
369.521
-731.407
-2241.84
-1888.98
-662.4
-2634.47
-1455.01
-2891.86
-3561.99
-702.3
-1104.5
-1485.01
-2111.48
-4687.79
-1040.52
-892.848
-1462.8
-3533.34
-5915.84
-2330.83
-5487.55
-9349.55
-8309.63
-11489.4
-860.381
-429.771
-3425.43
-1502.64
-944.597
-7971.87
-3235.43
-1309.72
-3163.91
-4976.89
-1944.99
-4837.01
-8018.9
-7117.73
-9189.55
-839.653
-287.144
-3409.7
-1191.63
-82.2486
-7264.22
-1801.62
-1054.64
-2547.48
-3703.44
-1425.92
-4015.24
-6252.61
-5481.33
-7085.77
-663.979
-303.171
-2578.67
-1112.47
-224.695
-4898.64
-1389.83
-777.521
-1984.7
-2613.11
-987.841
-3201.42
-4691.92
-4179.71
-5413.77
-505.81
-282.287
-2019.42
-1020.4
-125.522
-3758.98
-1167.28
-592.452
-1535.22
-1956.55
-728.098
-2411.73
-3601.94
-3250.98
-4447.75
-389.643
-325.406
-1510.27
-1046.08
-235.992
-3052.51
-1197.4
-474.379
-1164.28
-1572.43
-577.704
-1928.9
-3298.07
-2614.46
-3879.7
-351.948
-371.427
-1156.68
-957.252
-456.57
-3038.44
-1464.62
8387.88
10627.2
21345.7
31773.8
32572.2
55845.3
24424.6
61511.5
19468.7
42612.3
29139.2
44581.1
25716.8
34543
9821.6
11316.9
21866.3
25003.2
27469.5
27409.9
20987.8
25180.5
30544
27233.6
7293.39
5878.13
8916.1
6346.64
18597.1
15563.3
31315.5
23618.4
23996.7
25141.5
27906.3
27564
10767.4
8026.69
54858
73414.4
36211.6
44280.4
71052.3
92546.6
37299.4
42802.6
42056
59377.8
37698.3
49488.8
22648.8
35894.5
4396.18
1550.53
4469.7
1668.53
13950.1
5777.03
18848.1
7135.84
14154.8
5436.83
14295.8
4737.73
23864.6
7830.92
30772
10680.9
32384.8
16844.7
30195.7
17969
28660.5
18463.9
25822.5
18535.3
25475.4
15731.1
25466.2
13934
31560.4
19654.8
31854.4
19765.1
27673
19458.4
28147
19414.8
27572.4
17721.3
28624.7
18124
26814.8
12468.5
13834.9
17864.1
26636.9
13707.1
12334.8
18275.6
28504.5
12311.4
15391.7
17895.9
30044
12588.9
16560.5
18580.2
5602.02
6040.62
2011.28
4134.03
16916.9
17816.2
7025.04
13268.5
21560.1
23135.9
11786.9
20341.9
12158.8
-637.626
16873.8
23691
14606.3
-1268.43
5784.95
15550
27199.3
23217.5
12397.6
16542.2
16500
16055
26221.4
4736.07
3475.25
2807.4
2669.45
14328.2
10777.1
9677.64
8660.13
17136.9
12517.5
12620.6
10582.1
4703.49
6159.68
10845
11255.8
16904
14483.4
20149.3
15950.7
16854.3
13586.8
9519.59
8267.13
13512.9
8324.92
13940.9
7946.55
13709.9
7584.21
18203.6
10649.4
11748.4
3186.38
10899.6
9389.51
13135.7
14420.9
14692.8
18617.4
10027.2
8556.44
11636.9
1429.93
9981.43
15518
9568.45
16866.7
14629.8
23288.2
14820.8
25016.8
8998.48
14865.9
8480.85
16058.8
13122.8
7930.94
19211.3
6682.28
12443.6
495.282
16578
-181.928
12916.1
12132.5
20099.2
8488.73
11266.4
14363.9
18344.5
10976.7
2282.6
1732.6
1209.4
1790.42
1411.91
1038.64
7409.97
4603.37
2981.58
5428.92
3270.05
2132.8
7840.96
5067.14
3873.12
6346.91
3753.15
2859.04
4387.92
2660
2124.91
8611.22
4414.32
2819.36
9758.73
4983.84
2920.14
10366.4
5857.63
3996.55
8764.97
4252.87
2505.21
11749.4
7382.62
4667.46
9006.63
5545.16
3154.58
9647.17
5476.47
2872.29
9536.61
5113.84
2559.42
11911.6
5414.68
2100.17
12117.3
15750
10099.6
12513.8
14665.9
20396.3
13683
18719.8
35.1293
555.176
-384.014
175.873
3059.26
3149.33
1540.02
1001.21
1454.56
3016.58
10190.4
14039.8
6172.05
3974.33
12013.1
12082.3
19920.3
22057.6
-132.138
-4029.12
8515.17
7942.72
7187.67
5446.26
885.873
469.781
716.397
389.393
2215.14
326.407
350.542
-261.743
8866.28
1986.06
6542.6
1719.69
8891.52
2508.48
10500.2
2925.96
10754
12132.4
9841.75
11817.1
17835.7
17008.5
16992.5
16063.8
6206.93
8358.35
7147.67
8305.41
10301.1
11409.4
11111.5
11370.2
17752.5
15793.2
18490.3
15709.8
6169.89
8078.25
6493.55
8066.81
24.2185
686.157
5379.39
2278.76
-246.792
430.31
4955.61
1987.54
320.652
858.046
5454.81
2466.84
522.459
940.811
5357.64
2469.91
-376.179
-425.105
146.591
-9.34771
-1829.65
-1706.23
-63.9593
-274.847
-135.668
-1014.28
1018.65
436.962
-8368.19
-9577.14
-3943.12
-2765.67
-393.382
-10334.2
-8965.3
-2858.25
-3903
-689.934
11163.4
8072.45
6061.92
4612.56
1897.26
-332.409
-229.186
-53.9188
-46.325
-1171.54
-851.418
-174.739
-136.119
-1214.99
-1156.54
118.991
52.8374
-4157.73
-1124.32
-5696.85
-2635.53
-1914.1
-993.833
-2035.06
-1331.56
-75.6502
148.063
4192.95
2381.63
1680.53
-134.202
1136
-121.935
985.067
112.773
513.754
385.124
4894.25
3749.74
8703.9
4821.09
8205.27
6902.58
12073.1
8691.78
5810.99
3042.24
3056.83
2457.34
10098.3
4288.91
10909.8
4718.15
13331.9
8966.01
14061.2
9641.98
6975.11
2584.74
7642.14
2911.4
3502.5
2142.71
1476.76
1813.28
2185.95
1873.4
1216.63
1657.35
4020.47
2070.44
1636.69
2074.11
4860.21
2211.11
2282.49
2096.17
-146.749
-103.624
-96.7691
-20.1615
-36.8125
-34.0085
-573.399
-430.727
-354.705
-62.0908
-110.471
-95.3191
-866.702
-660.107
-526.65
79.5193
-116.368
-127.887
-239.409
-219.18
-30.931
-1120.72
-968.991
-742.242
-721.853
-674.563
-568.754
-915.041
-722.003
-575.437
256.265
-34.5455
-57.043
3029.07
1508.99
743.586
182.756
-239.125
-385.391
80.4674
-304.76
-400.923