/*--------------------------------*- C++ -*----------------------------------*\
  =========                 |
  \\      /  F ield         | OpenFOAM: The Open Source CFD Toolbox
   \\    /   O peration     | Website:  https://openfoam.org
    \\  /    A nd           | Version:  11
     \\/     M anipulation  |
\*---------------------------------------------------------------------------*/
FoamFile
{
    format      ascii;
    class       volScalarField;
    location    "0.5";
    object      gradTz;
}
// * * * * * * * * * * * * * * * * * * * * * * * * * * * * * * * * * * * * * //

dimensions      [0 -1 0 1 0 0 0];

internalField   nonuniform List<scalar> 
5712
(
10380
33837.4
8374.99
34581.9
6097.74
35110.4
9207.79
51939.2
11237.1
70808
11415.6
52902.4
11267.5
44652.4
11744.6
40324
7030.91
4542.86
19024.6
11438
6665.5
3555.31
19860.6
9703.24
8210.38
6399.71
26128.5
19577.1
6208.4
4920.39
25612.2
19765
14669.6
6321.27
12757.2
5838.33
6274.68
14205.7
47073.2
12410.7
16932.2
5158.69
58331.5
15335.7
15034.1
4503.51
34981.9
10646.4
17886.4
5909.55
31596.5
9886.88
11796.4
5845.52
14946.9
6046.02
12789.8
6858.88
14458.4
5793.61
15401.6
8970.54
12342.4
5649.24
17302
6469.53
5817.08
2107.23
18591.3
13036
10972
7902.82
18040
14500.5
9593
7838.19
11505.5
8054.63
17391.8
12132.4
6819.95
4856.19
2927.87
2345.33
5797.32
4720.16
2391.64
2319.45
7259.54
4834.03
3285.17
2065.87
11089.7
6357.25
8826.36
10834.1
15976.6
11769.4
13403.2
18855.2
6961.38
3510.39
4948.56
6047.31
3136.55
1408
1876.14
2112.05
16862
29538.4
11169.6
32884.3
19191.9
28496
13493
33896.1
20998.1
25124.9
16857.9
32251.4
19103
19305.9
17248.2
17517.5
19099.9
18908.7
21026.7
23926.9
26667.7
38667.4
15641.5
14586.5
14561.6
17256.9
26740.8
34185.7
30125.2
39473
37541.1
31103.8
28367
38586
36392.9
26436.1
25454.3
35611.3
34563.3
13817.8
10868.3
16069.9
14292.7
19547.6
18303
22930.4
22526.4
31886.1
32737.9
12690.5
11360.3
14632.8
15322.4
17096
19458.2
20625.9
24190.9
27475
32374.4
11598.1
8730.46
7382.65
8493.62
13192.7
14320.4
8596.16
12401.3
7283.79
8490.35
11566.7
9224.4
1921.16
5305.73
467.923
1544.63
4045.67
7908.33
1010.94
2367.38
1490.9
5127.3
287.335
1478.71
7904.52
7351.85
9587.2
5917.73
13064.2
10254.8
16039.9
11047.6
2378.39
3857.49
4727.86
2657.96
2059.71
2468.98
2978.55
2129.27
23845.3
14301.2
4561.33
26876.5
15278.3
4960.86
22799.6
14058.5
4777.96
26143.8
15163
4923.2
20613.8
12745.4
4171.2
25046.1
14938.3
4911.29
7689.57
4643.23
1445.88
11718.3
7670.28
2566.93
15588.4
10339.5
3489.1
19273.9
12303
4040.85
24442.8
15029.4
5079.81
8641.86
5311.95
1865.41
11963.5
8518.43
3202.42
15593.7
11120.7
4074.72
19754.5
13517.2
4802.74
24772.6
15377
5396.14
249.061
1994.56
2777.75
4062.97
2728.53
2880.54
6636.65
6055.87
547.766
774.405
583.565
803.73
342.005
1076.18
686.411
1436.07
2565.2
1306.92
3504.39
2101.88
1682.21
2779.29
3237.57
-156.917
7168.22
915.92
-3131.25
-903.439
970.231
41.6218
57.918
-521.938
7315.24
2697.82
1928.94
983.199
7478.79
2765.15
2432.56
1207.16
7508.74
2924.27
3326.28
1793.35
2040.4
1098.68
106.265
224.269
12723
10649.9
5676.57
5505.48
15604.8
13920.7
7446.96
6995.07
4268
4118.12
9589.22
7362.12
2943.66
3019.48
1025.64
1469.03
4181.54
3952.39
1669.07
1939.13
2024.77
2267.2
537.774
1161.52
3179.96
1609.52
2933.41
1459.89
5427.01
2276.66
4669.6
2159.22
1471.97
957.226
1647.08
809.467
277.132
304.988
828.871
330.335
8136
4443.04
3240.15
2624.73
8236.59
4763.8
3229.81
2629.88
8946.47
5459.11
3286.77
2658.53
13878
17134.8
10973.8
6168.89
2472.93
15754
12559.3
9964.44
6862.6
3058.76
14737.7
11524.2
7895.96
5001.84
2153.99
2734.35
1754.57
2035.42
1654.71
3122.85
1957.34
2171.49
1753.61
3844.9
2454.65
2401.11
1947.1
11476.2
7895.07
9032.34
5825.92
5938.27
4187.2
4468.44
3147.82
2393.98
2117.1
9615.43
8015.64
7249.89
5803.18
5154.97
4113.78
3546.8
2923.19
1810.15
1984.71
6483.32
4207
4073.14
2492.42
9751.77
7089.32
6396.66
5028.5
2767.68
1632.86
4244.98
2855.53
3674.92
1711.35
933.167
465.297
4487.53
3185.52
1097.43
908.235
2693.9
1134.06
730.627
315.226
1699.5
1313.21
927.281
1145.9
2552.11
1971.77
1239.5
1461.66
1696.84
888.241
654.512
765.65
295.218
101.227
-217.728
-5.42859
1009.17
410.256
114.928
956.751
271.837
71.2692
1169.1
500.371
147.321
1036.12
310.797
84.6379
1420.88
643.609
178.419
1164.84
366.427
94.3455
5029.58
2804.44
814.392
3445.98
1774.36
514.785
2505.31
1229.61
363.094
1814.01
831.334
222.306
1291.9
406.616
91.2165
5828.62
3131.84
993.587
4047.86
2009.64
606.71
2835.23
1363.33
404.421
1974.26
871.741
241.897
1412.91
403.107
104.187
806.544
224.519
52.4483
5.3169
332.124
94.6483
23.8541
4.04927
830.149
234.177
58.2899
9.46727
389.522
113.727
39.097
12.9469
857.023
244.488
71.8172
18.8236
575.003
174.705
38.263
5.75121
302.972
103.988
3.49347
-9.0804
130.893
60.6835
13.2676
3.03139
598.913
183.156
36.8901
-4.81804
457.646
135.49
41.9559
1.17701
787.183
227.577
62.471
9.6851
643.186
182.183
57.1693
1.08882
380.724
125.26
26.8953
-0.942978
285.62
89.9121
30.8153
4.5917
160.237
61.8778
18.184
5.78211
118.318
43.4362
17.6737
6.05946
979.323
272.393
65.9406
4.04901
873.056
244.163
79.4228
6.31829
964.919
268.573
65.4823
3.5851
848.014
235.581
78.2848
5.59916
929.112
258.281
74.2664
10.1601
801.836
219.895
81.2383
9.22726
773.967
218.772
75.5711
21.7296
868.726
235.843
99.488
13.1775
645.342
180.418
66.3604
10.5668
606.604
163.011
61.85
9.47103
223.464
57.4789
18.52
5.20282
641.311
171.565
63.7058
9.64876
239.432
61.4549
20.2538
6.05089
676.8
179.44
67.8966
10.731
255.489
65.2721
21.7228
6.82105
625.079
165.363
69.5799
11.6696
257.817
65.6256
24.6367
7.93328
567.125
153.031
65.2516
12.3155
233.947
63.0991
26.9144
8.80304
332.238
91.0481
30.0519
5.02694
178.287
54.1366
19.0693
6.56247
431.434
114.763
43.9196
8.00159
207.935
59.8615
23.7049
8.06517
217.585
63.0944
19.9861
3.82072
120.887
39.4225
12.7626
4.76482
93.6042
31.9651
12.5368
4.23422
57.1824
22.187
8.3943
3.58047
1.38954
0.344676
0.0898631
0.0246182
0.00835727
0.707679
0.173176
0.0457676
0.0127303
0.00437254
1.96457
0.509003
0.141719
0.0409073
0.01441
1.41154
0.372699
0.1083
0.0321804
0.0115483
2.33016
0.65574
0.195281
0.0586847
0.0212062
2.78389
0.942493
0.298076
0.0921063
0.0338349
2.24949
0.883681
0.295267
0.0941856
0.0354018
2.4951
0.939393
0.318412
0.103637
0.039735
1.87554
0.710985
0.232304
0.0729105
0.0270506
1.67758
0.621133
0.204588
0.0647334
0.0241653
2.12149
0.674736
0.20872
0.063804
0.0232838
2.12141
0.727769
0.228449
0.0702479
0.0257221
1.7429
0.699997
0.237415
0.0764259
0.028907
1.73961
0.629905
0.211215
0.0681521
0.0258759
2.01326
0.735757
0.249723
0.0816946
0.0314755
1.70268
0.600065
0.202773
0.0665076
0.0257077
1.14869
0.289129
0.0743465
0.0200164
0.00669877
0.455685
0.114656
0.0293744
0.00786501
0.00261874
1.49859
0.401643
0.108875
0.0306122
0.0105806
0.587121
0.158438
0.0425708
0.0118445
0.00405987
1.73647
0.475145
0.13586
0.0398024
0.0141529
1.10757
0.298997
0.0842523
0.0244469
0.00863417
2.48122
0.716815
0.212569
0.0635564
0.0228819
1.70535
0.476288
0.138025
0.0407385
0.0145446
2.76854
0.846308
0.255009
0.0767961
0.0277548
3397.82
7937.38
3547.63
7896.03
3972.13
7824.46
4546.48
7926.61
4479.71
7857.56
1664.77
2640.08
2837.78
4587.06
815.157
1252.33
167.956
326.436
19379.5
5012.2
1351.24
429.557
199.91
5372.84
1567.66
480.061
151.983
65.0762
18992.5
4890.41
1321.78
419.376
196.705
5476.23
1728.37
493.951
158.472
71.273
17864.2
4597.93
1245.84
397.052
187.013
5299.45
1663.7
474.779
152.048
68.6473
16070.1
4136.22
1126.79
361.699
171.316
5076.12
1566.92
443.324
141.319
63.6029
13253.3
3425.64
942.496
305.845
146.045
4694.01
1422.67
400.942
127.875
57.6604
6204.84
1697.47
481.545
159.67
77.1984
2244.97
693.014
194.858
61.8722
28.1947
9279.62
2488.4
696.086
228.251
109.7
3332.9
1016.44
288.026
92.5394
42.2455
3629.65
1005.43
287.927
96.3638
46.8251
1243.41
397.93
111.375
35.4277
16.3338
1230.01
340.813
98.2565
33.1391
16.1817
447.844
132.887
35.1096
13.0795
5.11731
-1473.89
-544.588
5420.47
-1664.55
843.393
902.825
2553.5
3318.03
2120.45
4073.84
3701.3
5733.12
4762.87
5888.2
2395.57
3198.8
2407.04
2862.6
1248.9
1298.21
1748.97
986.172
408.782
57.9003
-8.15486
-10.3188
165.423
13135.6
4603.78
4541.92
3613.43
813.62
665.818
2776.33
205.09
335.455
246.646
48.0894
7012.07
3630.37
1707.81
1093.17
2588.28
1534.77
550.691
896.458
-90.8079
122.999
797.768
673.364
7671.59
3041.02
4650
2052.42
2485.01
4178.46
1074.64
90.0784
980.9
1007.63
658.071
455.945
320.609
183.516
669.192
456.529
299.166
178.194
67.1048
340.817
262.898
182.071
105.968
34.7835
49.7552
39.5969
28.1677
16.6753
5.49942
-7.67023
-6.59268
-4.91287
-2.94532
-0.967759
-9.5461
-8.08992
-5.9716
-3.56432
-1.16801
140.136
110.133
77.683
45.849
15.1534
8206.77
5751.63
3832.8
2502.6
1533.23
3252.56
2213.13
1523.32
932.486
377.82
3162.22
2190.03
1466.21
875.162
342.442
2430.64
1573.78
1033.81
607.138
213.53
577.118
367.979
250.835
149.461
52.535
557.076
432.166
302.407
178.821
60.0267
2108.43
1512.36
994.833
572.017
198.463
235.179
215.127
161.28
100.12
34.8859
278.892
216.727
152.864
91.2967
30.8581
233.709
198.656
148.674
91.9707
31.5768
31.1773
18.928
11.1419
6.21641
2.16536
4450.09
3229.43
2195.32
1459.22
899.271
2558.13
1780.84
1204.13
719.422
274.094
1381.57
1043.81
716.911
420.165
142.034
880.562
661.97
452.198
263.435
88.248
1999.64
1452.44
967.522
557.522
189.956
1249.62
946.459
649.488
378.742
125.672
446.952
337.999
231.749
135.005
44.8567
738.608
563.842
387.783
225.213
74.1323
-73.7872
-54.4108
-35.2843
-19.0278
-5.83831
101.538
77.9595
54.2211
31.9319
10.6194
651.443
493.649
338.035
196.304
64.9904
555.22
424.666
292.9
170.654
56.364
4410.99
2718.45
1853.19
1233.91
735.125
2080.63
1413.05
921.802
544.287
204.963
3049.87
2136.85
1414.41
857.536
334.398
1476.71
1049.81
695.469
410.348
150.149
1944.2
1427.61
960.127
556.406
187.568
2948.51
1994.48
1330.89
787.105
278.253
878.154
665.661
455.661
264.221
87.1387
73.8136
56.2149
38.8182
22.7523
7.54726
795.908
601.124
411.671
239.791
79.7283
-43729.8
-69155.9
-36574.9
-55812.6
-37554
-74590.9
-44659.3
-94867.7
-28226.5
-19789.8
-30599
-19756.5
-25259.3
-16526.4
-30099.9
-16622.5
-37841.8
-29885.3
-53364.9
-40069.6
-32676.3
-27324.6
-44303.6
-34637.3
-25524.8
-27013.9
-21245.1
-21270.8
-26183.4
-23654.1
-56745.4
-15719.1
-22625.9
-8753.54
-66940.9
-18880.9
-19910.2
-7953.61
-43844.4
-13835.9
-23388.8
-9210.9
-40187.4
-12378.4
-21147.9
-8740.91
-25907.2
-9581.57
-20245.1
-9181.68
-22458.8
-8347.65
-20802.4
-10621
-17915.6
-7387.46
-22183.4
-8067.96
-7762.71
-2802.46
-16516.8
-11873.3
-14222.8
-9187.82
-13741.2
-11297.7
-11973.4
-8586.43
-15084.7
-9441.18
-18022.5
-12476.4
-9855.92
-6273.24
-5490.36
-3723.44
-8329.27
-5850.3
-4669.24
-3520.36
-10324.9
-6202.83
-5765.36
-3351.15
-13844.2
-7339.8
-9908.34
-11347.2
-17960.5
-12606.4
-14202.4
-19332.8
-9278.16
-4326.4
-5969.78
-6492.8
-4985.73
-2081.08
-2817.23
-2504
-21999.3
-28021.1
-12855.1
-32720.1
-22833.2
-26639.6
-14826.9
-33391.5
-22907
-23840.8
-17681.8
-31563.4
-14183.5
-11046.7
-16637.9
-19255.3
-19921.6
-14625.2
-18182.7
-22590.3
-26000.3
-38031.7
-10564.7
-12089.9
-14017.5
-17434
-26823
-27248
-19080.5
-35321.8
-27373.4
-25178.8
-18648.1
-34796.9
-27296.9
-22043.1
-17508.5
-32456.8
-27071.8
-11822.1
-9375.77
-13944.9
-11447.6
-16550.3
-13972.5
-19413.7
-17010.8
-29430.8
-27161.7
-10523.7
-9472.12
-12395.9
-12100.9
-14959.1
-15446.4
-18787.9
-19843.2
-26253.6
-27872.5
-10324.7
-7948.82
-7442.47
-8387.91
-10933.8
-12841.7
-8138.71
-11689.4
-7661.43
-8666.94
-11111.6
-8805.03
-2505.35
-5588.59
-1209.23
-1993.46
-4364.7
-7869.34
-1584.95
-2615.05
-2154.29
-5535.11
-1052.47
-1975.34
-8339.5
-7577.32
-9931.69
-6057.72
-13037.3
-9979.38
-16154.1
-10699.3
-2944.92
-4235.05
-5113.55
-2918.27
-2693.27
-2908.48
-3389.56
-2440.22
-11711.6
-4015.84
-16097.3
-5436.11
-11937.7
-4210.2
-16454.8
-5834.23
-11794.7
-4110.33
-17168.4
-6438.97
-5850.11
-1871.67
-7996.16
-2929.1
-9900.94
-3717.97
-12535.9
-4600.23
-18158.1
-7021.77
-6704.58
-2327.31
-8381.85
-3653.14
-10877.4
-4630.27
-14405.4
-5879.47
-19197.2
-7163.09
-9495.03
-8623.42
-7743.64
-7320.82
-16003
-12196.2
-13398.4
-10994.8
-5876.43
-4259.24
-2497.89
-1594.26
-5764.01
-4690.92
-2557.51
-2224.65
-4935.44
-6557.65
-5475.62
-6884.51
-5092.25
-4007.94
-5808.1
-2341.58
-10747.3
-3963.27
937.304
-1524.42
-2786.83
-2046.17
-1378.46
-1259.7
-2495.87
-1211.66
-1012.2
-448.105
-2791.26
-1335.38
-1574.55
-631.481
-3336.78
-1615.35
-2705.33
-1170.78
-2359.01
-883.233
-971.755
-241.763
-7175.02
-7006.07
-5961.79
-5049.9
-10216.3
-9722.61
-8751.19
-7038.46
-3855.06
-3474.58
-4976.4
-4838.62
-4131.36
-3299.07
-2413.6
-1999.65
-6037.27
-4637.92
-3527.77
-2816.14
-2628.04
-2257.37
-1454.79
-1394.44
-2315.08
-1096.13
-2350.51
-1126.74
-2918.67
-1403.16
-3227.72
-1575.73
-1506.08
-750.619
-1504.67
-650.538
-672.963
-258.739
-873.041
-257.261
-3137.87
-3228.04
-1712.2
-1912.69
-3268.51
-3437.59
-1753.31
-1918.34
-3694.4
-3568.03
-1871.18
-1881.18
-5010.24
-7839.79
-3787.58
-2511.15
-1322.96
-10866.3
-7396.38
-5668.86
-4125.25
-2193.42
-8613.25
-6440.65
-4543.06
-3154.58
-1465.41
-3012.08
-2392.3
-2146.48
-2632.48
-3157.8
-2448.57
-2142.44
-2601.68
-3410.57
-2780.39
-2105.26
-2553.54
-9652.31
-7300.12
-7571.63
-5572.86
-5427.15
-4046.5
-3920.63
-3063.91
-2050.28
-2405.15
-7605.4
-6893.7
-5556.51
-5051.57
-3925.07
-3557.76
-2764.05
-2593.61
-1347.14
-1963.88
-4562.16
-3226.89
-3353.56
-1869.53
-7296.79
-5879.55
-5641.67
-4295.8
-2188.19
-1142.55
-2968.14
-2134.67
-3558.88
-1519.77
-1108.25
-469.8
-4528.59
-3028.5
-1460.52
-998.479
-2519.12
-954.703
-771.908
-277.466
-1316.89
-1000.54
-734.476
-1003.85
-1827.5
-1523.85
-930.695
-1290.54
-1530.99
-753.367
-542.207
-686.856
-255.264
-48.1745
279.414
50.8512
-1540.83
-486.631
-1655.88
-185.678
-1634.99
-569.834
-1675.85
-207.184
-1715.88
-549.817
-1596.34
-168.525
-4316.09
-1285
-3321.35
-1009.48
-2636.82
-877.449
-1841.5
-518.401
-1523.42
-225.766
-4877.42
-1376.08
-3516.41
-879.355
-2536.02
-634.81
-1815.13
-384.061
-1549.63
-245.201
-447.304
-133.693
-27.7589
2.70101
-178.15
-53.6583
-13.1085
-0.981824
-473.893
-139.486
-31.6808
-0.835055
-202.731
-58.2121
-23.9783
-8.79361
-520.326
-148.7
-43.4489
-9.60761
-320.176
-83.7242
-6.54951
5.68295
-132.639
-25.431
28.2738
21.2362
6.77419
19.7596
21.0985
10.0449
-394.396
-108.417
-8.89582
16.0776
-305.227
-74.7172
-18.2881
9.16069
-526.198
-145.47
-35.2561
0.575902
-423.897
-105.724
-29.6734
11.3941
-242.414
-61.9325
-1.16634
11.1676
-184.946
-42.3827
-10.3334
4.49155
-60.0155
-5.14667
7.08698
4.53652
-44.5587
-3.03181
1.15813
2.5186
-594.611
-171.687
-36.3907
7.07707
-618.99
-165.652
-58.4745
4.92958
-589.154
-167.534
-35.1131
7.98798
-604.083
-159.779
-57.6799
5.55291
-576.207
-159.722
-45.507
0.330387
-570.445
-148.641
-62.3301
1.37907
-445.994
-120.21
-45.2094
-10.5615
-615.709
-156.018
-76.7828
-0.297289
-406.054
-100.373
-38.3843
2.88858
-491.924
-114.564
-48.6843
-1.29388
-196.817
-41.3699
-12.2224
-2.29915
-483.868
-112.283
-47.6323
-0.819891
-195.835
-41.0127
-12.7482
-2.74004
-457.723
-105.28
-49.0202
-1.52244
-183.498
-37.9467
-12.0841
-2.66942
-409.797
-94.4673
-51.9368
-3.15423
-167.68
-34.5576
-14.0652
-3.26479
-355.018
-81.3238
-45.569
-3.78099
-126.996
-25.953
-14.685
-3.41143
-231.854
-49.3886
-13.4877
3.18932
-80.2733
-13.7644
-3.91639
0.272411
-298.598
-66.1206
-27.0421
0.226239
-93.5904
-17.6054
-8.96626
-1.55389
-142.658
-27.1224
-4.27557
4.01688
-51.4483
-6.25093
1.01456
1.68585
-35.234
-0.0813386
2.12942
3.12536
-6.45407
5.71353
3.98242
2.37078
0.280197
0.052327
0.0140652
0.00493645
0.00220863
0.038824
0.0208373
0.00746695
0.00277296
0.00123823
0.194728
0.0856314
0.0307781
0.0111625
0.00482915
0.00616162
0.0688945
0.0279579
0.0102145
0.00435989
0.447286
0.177496
0.0598415
0.0206842
0.00862149
1.02476
0.324477
0.110061
0.0379882
0.0156662
1.73465
0.503552
0.164213
0.0547398
0.0218736
2.23958
0.756
0.253004
0.0835749
0.032771
1.36241
0.34048
0.104958
0.0347149
0.0140021
1.24728
0.324112
0.0987556
0.0322689
0.0129153
0.84092
0.22896
0.0725428
0.0245573
0.0101132
1.01087
0.246838
0.078682
0.026855
0.0110982
1.6404
0.45935
0.144686
0.0473698
0.0187559
1.26769
0.40306
0.13031
0.0428091
0.0169434
1.75958
0.617722
0.207479
0.0684668
0.0268132
1.37756
0.503575
0.170692
0.0564218
0.0221072
0.551587
0.0593569
0.0110036
0.00350945
0.00158007
0.310442
0.0273807
0.00418347
0.0012624
0.000573763
0.491396
0.0689112
0.0189083
0.00678525
0.00301768
0.284464
0.0286902
0.00651086
0.00231661
0.00105219
0.439536
0.104444
0.033281
0.011673
0.00497153
0.158471
0.0407726
0.0156483
0.00602229
0.00267982
0.53599
0.159195
0.0547314
0.0195285
0.00830197
0.212944
0.0736325
0.0289615
0.0109727
0.00480632
0.58474
0.182432
0.0659337
0.0239299
0.0102238
-3224.1
-6705.72
-3424.99
-6787.09
-3904.2
-6933.37
-4404.35
-7178.34
-4283.71
-7193.93
-1813.1
-2716.89
-2842.87
-4428.92
-1036.58
-1420.05
-421.974
-529.778
-19509.3
-5067.91
-1368.26
-433.927
-201.052
-5358.97
-1584.06
-486.118
-153.583
-65.4506
-19108.1
-4941.67
-1337.68
-423.467
-197.788
-5467.95
-1745.33
-500.102
-160.143
-71.7153
-17948.4
-4640.99
-1259.6
-400.635
-187.97
-5292.88
-1679.07
-480.441
-153.603
-69.065
-16130.8
-4170.97
-1138.03
-364.628
-172.101
-5062.99
-1579.33
-448.209
-142.68
-63.9708
-13317
-3454.02
-951.074
-308.013
-146.617
-4675.05
-1432.5
-405.038
-129.025
-57.9725
-6282.55
-1715.31
-485.686
-160.594
-77.4257
-2281.5
-704.493
-197.914
-62.5974
-28.379
-9364.44
-2511.86
-702.156
-229.685
-110.067
-3337.14
-1025.65
-291.241
-93.3919
-42.4746
-3689.22
-1017.95
-290.663
-96.9542
-46.9679
-1300.7
-411.872
-114.563
-36.1204
-16.4986
-1276.76
-350.035
-100.203
-33.548
-16.2784
-514.778
-148.229
-38.4228
-13.7777
-5.27875
-1872.35
-3333.36
-9505.34
-1348.06
-9912.21
-4415.2
-9642.42
-4662.02
-17774.5
-9500.07
-19750.5
-10349.5
-6.85159
-21.1099
-34.9296
-42.7396
-25.7132
68.927
-14.4686
-45.4174
-78.2351
-103.338
-92.473
8.89965
-4.36292
-3.82438
-13.0708
-12.1735
-19.2048
-20.4176
-13.3846
-21.0624
3.36094
-19.9935
50.2942
1.2665
357.51
854.738
1567.22
1123.71
969.347
345.205
270.554
740.676
1340.67
1688.39
1433.55
560.505
-5.99442
-4.8744
-3.54045
-2.12834
-0.707953
-18.4635
-15.0095
-10.8999
-6.55197
-2.17937
-30.5021
-24.7488
-17.9378
-10.7661
-3.57815
-37.2736
-30.1972
-21.8537
-13.1008
-4.35119
-22.632
-18.5331
-13.5513
-8.18598
-2.72938
58.0886
45.1975
31.4394
18.2932
5.98466
-12.6164
-10.2172
-7.38971
-4.4271
-1.46978
-39.5682
-32.0125
-23.1329
-13.8504
-4.59702
-67.9647
-54.7998
-39.4656
-23.5675
-7.81134
-89.4207
-71.7688
-51.454
-30.6218
-10.1316
-79.7063
-63.6899
-45.4728
-26.9812
-8.91409
7.0776
5.10779
3.27396
1.78057
0.561731
-3.82764
-3.12336
-2.277
-1.37297
-0.457448
-3.3609
-2.74835
-2.00816
-1.21313
-0.404617
-11.4638
-9.35162
-6.81581
-4.1091
-1.36898
-10.6881
-8.73011
-6.37136
-3.84531
-1.28186
-16.8303
-13.7163
-9.98701
-6.01601
-2.00331
-17.8865
-14.5693
-10.6017
-6.38302
-2.12494
-11.8194
-9.72007
-7.1406
-4.3306
-1.44707
-18.4303
-14.9897
-10.8892
-6.54646
-2.17746
2.50263
1.6211
0.887343
0.403201
0.112082
-17.492
-14.216
-10.313
-6.1902
-2.05677
42.3675
32.9563
22.9243
13.3423
4.36625
0.710235
0.226767
-0.060958
-0.128041
-0.0563562
301.233
234.725
163.785
95.6549
31.3864
710.437
546.475
377.619
219.49
72.0352
1272.15
959.314
654.355
378.867
125.056
895.91
667.439
453.833
263.438
87.1511
799.134
598.267
404.283
231.44
72.2077
299.58
228.711
156.257
89.5359
26.7975
227.774
177.296
123.582
72.1177
23.6523
617.644
476.356
329.716
191.723
62.862
1103.43
840.89
577.094
334.343
109.73
1371.65
1033.6
704.299
407.083
133.846
1163.03
873.217
592.897
341.812
111.835
457.017
344.277
234.563
135.622
44.3153
7.13829
21.5795
35.8565
44.6505
29.7153
-59.9514
14.962
46.1385
79.3951
105.062
94.8621
-5.14697
4.55732
3.98047
13.426
12.5087
19.9505
21.1898
14.9241
22.4466
0.619089
19.4267
-37.0227
3.85837
-339.785
-826.269
-1521.64
-1092.01
-969.461
-367.908
-263.711
-729.383
-1323.55
-1674.17
-1432.38
-570.582
6.26101
5.10805
3.72398
2.24595
0.748493
18.8975
15.387
11.194
6.73931
2.24374
31.3516
25.4803
18.5022
11.1227
3.70009
39.0087
31.6747
22.9803
13.8057
4.59102
26.2282
21.5559
15.8253
9.5934
3.20534
-50.1429
-38.6408
-26.601
-15.3455
-4.99641
13.0797
10.6278
7.71547
4.63742
1.54256
40.2453
32.6122
23.6085
14.1572
4.70312
69.0539
55.7639
40.2291
24.0594
7.98133
91.0366
73.1955
52.5804
31.3456
10.3813
81.9185
65.6152
46.9716
27.9336
9.24086
-3.72362
-2.30754
-1.18233
-0.493639
-0.12793
4.00703
3.27918
2.39836
1.45023
0.48399
3.50426
2.87224
2.10414
1.27399
0.425479
11.7889
9.63128
7.03142
4.24527
1.41555
10.9937
8.99187
6.5723
3.97178
1.32503
17.5063
14.291
10.4248
6.28981
2.09643
18.5859
15.1633
11.0537
6.6654
2.22094
13.1972
10.8733
8.00475
4.8639
1.62712
19.6753
16.038
11.6796
7.03673
2.34347
1.03679
1.31721
1.29537
0.934181
0.337698
17.086
13.9777
10.2114
6.16525
2.05534
-30.6747
-23.3631
-15.8867
-9.07424
-2.93876
3.8593
3.57621
2.8923
1.86575
0.641538
-285.781
-222.209
-154.727
-90.2261
-29.5838
-685.825
-526.712
-363.44
-211.054
-69.2487
-1232.2
-926.607
-630.412
-364.4
-120.246
-862.618
-635.517
-427.213
-245.766
-80.8917
-789.839
-583
-387.761
-218.748
-67.3174
-308.718
-227.088
-148.681
-81.7439
-23.4784
-221.863
-172.561
-120.197
-70.1097
-22.9895
-608.006
-468.743
-324.351
-188.581
-61.834
-1088.4
-828.568
-568.062
-328.876
-107.906
-1357.5
-1020.46
-693.549
-400.022
-131.374
-1157.93
-865.35
-584.454
-335.365
-109.402
-460.207
-341.714
-228.919
-130.332
-42.1718
-1846.57
-1031.44
-363.626
-26.0847
52.5748
69.3336
-97.2554
-11673.5
-3216.51
-3706.86
-1784.35
-340.713
-2654.88
-44.8235
692.891
167.601
-6417.12
-3117.98
-1220.76
-872.014
-2412.35
-1313.4
-478.829
-786.123
336.035
30.5059
-611.438
-508.795
-7532.11
-3007.81
-4397.09
-1950.54
-2352.53
-3779.43
-962.1
26.447
-801.363
-1037.98
-648.261
-427.999
-292.68
-170.683
-686.588
-453.685
-285.459
-163.939
-60.7967
-301.322
-230.765
-158.706
-91.9072
-30.1058
-21.4483
-16.1126
-10.7561
-6.03201
-1.92537
46.6626
38.4392
28.1659
16.9935
5.65558
61.1096
49.9919
36.4245
21.8994
7.27535
-79.8593
-60.5201
-41.2166
-23.7236
-7.75766
-7297.86
-5166.5
-3484.02
-2355.81
-1569.6
-2125.26
-1340.54
-922.335
-590.662
-265.047
-2518.41
-1702.95
-1134.35
-687.102
-284.585
-1154.14
-712.591
-479.654
-294
-106.529
-270.006
-199.686
-135.258
-79.2194
-27.0629
-2021.07
-1461.37
-967.367
-559.497
-195.408
-24.689
-11.7484
-5.50576
-3.20014
-1.54703
558.94
417.367
280.724
159.715
51.6556
147.542
118.825
84.4685
49.5273
16.1175
-3933.87
-2836.04
-1928.93
-1317.3
-873.925
-2119.59
-1428.36
-952.108
-571.447
-226.94
-962.833
-710.671
-480.255
-280.574
-96.2802
-690.642
-510.608
-344.373
-199.67
-67.3105
-1865.32
-1357.72
-907.692
-525.712
-180.485
-1051.06
-781.449
-527.726
-304.868
-100.988
-382.983
-284.869
-192.348
-110.95
-36.7999
-643.191
-487.297
-332.958
-192.648
-63.3876
285.639
224.201
157.031
91.6185
29.9077
31.4979
29.105
22.8443
14.1288
4.66615
-492.003
-367.634
-249.125
-144.056
-47.842
-412.984
-310.685
-211.318
-122.183
-40.358
-4277.67
-2599.17
-1757.57
-1174.71
-719.922
-2041.71
-1372.48
-885.965
-519.66
-196.09
-2788.04
-1906.11
-1235.32
-745.496
-292.691
-1376.68
-958.958
-623.327
-364.229
-134.37
-1827.83
-1332.4
-890.792
-514.818
-173.825
-2605
-1713.24
-1127.35
-666.218
-239.146
-780.679
-587.2
-399.224
-230.584
-76.0261
27.7501
26.053
20.7581
13.0072
4.34168
-638.65
-473.175
-318.797
-184.068
-61.2473
-18.1274
-51.3017
-92.042
-152.302
-244.886
-379.142
-32101.6
-28532.8
-26118
-29652.8
-23808.6
-18947.3
-20598.5
-15636.2
-29339.9
-26842.2
-27134.7
-26451
-24016.8
-20625.9
-25655.4
-27110.9
-24405
-21513.6
-24143.1
-20658.8
-17426.3
-17660.2
-14074.9
-26968.6
-25202.2
-24961.6
-23786.4
-21783.6
-20081.7
-21765.3
-21946.7
-20212.2
-17379.7
-18983.9
-17617.3
-15167.1
-14949.5
-12614.2
-23118.2
-22446.2
-21568.4
-21024.8
-18874.2
-17284.8
-19018.8
-15914.7
-15001.2
-12543
-13337.4
-13473.7
-12050
-11276.5
-10004
-17467.6
-18146.3
-16492.3
-17175.7
-14792.9
-13396.8
-15349.7
-10411.2
-9948.63
-8166.97
-8563.76
-9134.32
-8236.56
-7511.46
-6761.29
-11737.5
-12086.6
-11184.2
-11429.7
-10213.2
-9241.09
-10374.8
-3786.17
-3644.34
-2968.51
-3091.8
-3389.1
-3119.7
-2763.62
-2517.81
-4367.05
-4544.49
-4133.6
-4157.82
-3825.84
-3493.32
-3874.93
-11210.6
-10913.2
-17321.1
-18724.4
-10277.3
-8990.12
-15086.8
-12101
-7681.5
-5028.69
-7672.69
-5196.82
-7598.11
-7378.69
-5511.05
-11054.7
-10430.4
-15566.1
-16986.9
-9581.44
-8509.4
-13461.2
-11296.1
-7646.81
-4211.62
-7529.25
-4522.78
-6850.39
-6680.29
-5055.99
-9899.72
-9349.53
-13209.4
-14222.4
-8630.05
-7802.44
-11679.6
-10036.5
-6235.25
-3922.75
-6175.38
-4270.21
-5640.68
-5665.47
-4636.82
-7719.48
-7335.99
-9856.86
-10436
-6818.62
-6185.33
-8958.72
-7912.44
-5335.87
-3142.08
-5226.62
-3426.65
-4789.31
-4760.32
-3712.91
-5152.04
-4923.07
-6465.81
-6776.4
-4528.77
-4058.85
-5973.37
-5315.01
-3539.45
-2135.8
-3467.29
-2335.35
-3192.4
-3139
-2472.28
-1882.46
-1803.06
-2351.27
-2452.17
-1658.61
-1483.57
-2189.44
-1963.03
-1205.12
-767.67
-1230.15
-848.288
-1163.36
-1135.39
-885.501
10336
33157.5
8331.63
34582.1
6075.7
35114.2
9201.67
51948.9
11229.9
70820.9
11392.8
52896.9
11220.9
44629.2
11716.8
39485.9
7021.05
4540.56
19026.1
11438.3
6663.06
3554.91
19864.4
9704.5
8160.17
6356.62
25614.2
19216.2
6179.32
4907.75
25636.4
19794.1
14679.7
6312.26
12758.4
5835.14
6268.39
14218.8
47086.1
12412.2
16935
5158.42
58344.1
15338
15036.7
4503.83
35001.1
10649.8
17891.8
5910.29
31622.5
9891.53
11698.4
5796.39
14697.4
5949.95
12790.7
6860.24
14482
5802.72
15400.4
8971.06
12350.3
5653.07
17316.7
6475.18
5820.59
2108.63
18589.9
13035.2
10971.7
7902.58
18037.9
14498.9
9593.01
7837.87
11506
8054.72
17390.8
12132.2
6820.38
4856.15
2927.09
2344.9
5797.88
4720.16
2391.3
2319.19
7260.82
4834.17
3284.72
2065.52
11091.3
6358.24
8826.78
10834.6
15976.6
11770
13403.5
18856
6963.64
3511.38
4948.9
6047.64
3136.78
1408.17
1875.97
2112.06
16787.1
29551.6
11112.4
32890.6
19195.1
28489.4
13499.9
33891.4
20998.3
25123.3
16859.6
32250.6
19101.8
19303.2
17247.7
17518.5
19101.4
18906.3
21025.2
23925.8
26667.3
38667.9
15639.5
14585.4
14561.2
17257.2
26741.7
34254.5
30216.4
39513.1
37529
31090.9
28358.6
38571.3
36385.1
26431.5
25448.4
35609.7
34561.2
13816.1
10867.1
16068.5
14291.3
19546
18301.1
22928
22523.5
31885.3
32736.8
12689
11359
14631.8
15321.2
17095.1
19457
20625.3
24189.9
27475.3
32374.1
11597.4
8730.17
7382.38
8493.56
13191.4
14319.4
8595.56
12400.7
7283.78
8490.54
11566.4
9224.37
1920.98
5305.7
467.709
1544.52
4045.41
7907.98
1010.8
2367.23
1490.82
5127.41
287.137
1478.64
7904.74
7352.11
9587.6
5917.96
13064.3
10255
16040.4
11047.8
2378.45
3857.63
4728.06
2658.07
2059.68
2469.01
2978.62
2129.31
23910.3
14338.3
4582.53
26906.5
15306.2
4970.21
22793.8
14057.9
4778.27
26139.3
15161.2
4923.41
20609.9
12743.9
4170.95
25043.7
14936.7
4910.97
7688.65
4642.67
1445.7
11717.1
7669.48
2566.67
15586.6
10338.4
3488.76
19271.4
12301.6
4040.47
24441.4
15028.2
5079.43
8640.88
5311.34
1865.2
11962.4
8517.56
3202.1
15592.3
11119.7
4074.35
19753.2
13516.1
4802.33
24771.7
15376
5395.74
255.132
1996.85
2794.2
4067.95
2731.02
2881.67
6645.74
6058.69
531.897
765.339
565.712
791.534
346.162
1075.26
690.816
1434.85
2578.8
1312.4
3509.44
2103.18
1685.52
2787.83
3242.82
-152.723
7171.31
917.82
-3117.58
-894.061
976.645
47.3384
68.866
-513.238
7326.96
2699.9
1923.12
981.219
7469.53
2764.21
2430.12
1206.58
7502.98
2922.81
3327.71
1792.81
2044.89
1099.22
111.752
226.121
12718.7
10647.4
5677.53
5505.42
15601.6
13918.5
7447.42
6994.9
4269.02
4118.02
9584.96
7360.03
2945.97
3020.01
1027.41
1469.52
4182.85
3952.65
1669.69
1939.25
2027.43
2267.75
540.203
1162.16
3180.27
1609.4
2933.23
1459.75
5424.25
2275.76
4668.14
2158.54
1473.89
957.748
1647.49
809.677
279.411
305.998
829.469
330.747
8157.69
4442.27
3244
2625
8227.93
4762.37
3228.07
2629.11
8938.02
5455.38
3284.71
2657.14
13872.1
17130.5
10967.9
6164.98
2471.64
15750.6
12554.7
9959.55
6858.65
3057.19
14734.7
11520.8
7893.1
4999.81
2153.14
2728.87
1749.44
2034.5
1652.81
3121.84
1957.48
2170.07
1753.01
3842.95
2453.77
2400.05
1946.45
11473.9
7893.71
9029.5
5824.39
5935.62
4185.73
4466.2
3146.56
2392.86
2116.26
9613.54
8014.25
7247.65
5801.66
5152.89
4112.37
3545.2
2922.05
1809.34
1983.9
6481.42
4205.87
4072.48
2491.89
9750.02
7088.18
6395.97
5027.9
2767.14
1632.45
4243.44
2854.58
3674.78
1711.15
933.349
465.352
4487.32
3185.26
1097.45
908.207
2693.8
1133.92
730.884
315.32
1699.13
1312.84
927.069
1145.57
2551.08
1971.05
1239
1461.12
1696.79
888.125
654.529
765.535
295.501
101.344
-217.459
-5.32321
1006.26
409.167
114.804
956.496
272.476
71.381
1169.09
500.548
147.38
1035.67
310.562
84.6375
1420.51
643.512
178.408
1164.46
366.275
94.3133
5028.78
2804.01
814.265
3445.19
1774
514.683
2504.58
1229.3
363.012
1813.41
831.116
222.254
1291.43
406.466
91.1809
5827.69
3131.35
993.432
4046.94
2009.22
606.587
2834.4
1362.98
404.324
1973.59
871.475
241.828
1412.39
402.967
104.153
804.707
223.802
52.2267
5.25659
329.651
93.8241
23.6542
3.99673
830.146
234.177
58.2883
9.46352
389.426
113.698
39.0705
12.9326
856.794
244.438
71.8027
18.8161
574.743
174.624
38.2359
5.73842
302.974
103.968
3.49135
-9.0801
131.323
60.795
13.3004
3.04083
598.835
183.136
36.8904
-4.81452
457.631
135.497
41.9613
1.18419
786.936
227.52
62.4583
9.68224
643.021
182.147
57.1602
1.09197
380.844
125.296
26.9117
-0.935271
285.724
89.9577
30.8335
4.60025
160.562
61.9816
18.2192
5.79325
118.515
43.5153
17.7045
6.07131
979.669
272.433
65.8347
3.96652
874.11
244.528
79.4909
6.2588
964.569
268.472
65.4626
3.58158
847.756
235.505
78.2757
5.59602
928.718
258.185
74.2436
10.1572
801.496
219.81
81.2143
9.22355
773.621
218.676
75.5382
21.7173
868.349
235.752
99.4545
13.1736
645.116
180.36
66.3371
10.5582
608.609
163.696
62.1134
9.473
224.556
57.8233
18.6287
5.22631
640.395
171.289
63.6206
9.63125
239.07
61.3459
20.2133
6.04301
676.423
179.317
67.8597
10.7221
255.322
65.2162
21.7016
6.81341
624.78
165.277
69.5494
11.6638
257.679
65.5832
24.6198
7.92617
566.895
152.97
65.2274
12.3113
233.846
63.0688
26.9005
8.79703
332.21
91.0543
30.0563
5.03169
178.292
54.1451
19.0723
6.56396
431.31
114.739
43.9112
8.00204
207.882
59.847
23.6977
8.06199
217.647
63.1312
20.0023
3.82953
120.951
39.4563
12.7766