/*--------------------------------*- C++ -*----------------------------------*\
  =========                 |
  \\      /  F ield         | OpenFOAM: The Open Source CFD Toolbox
   \\    /   O peration     | Website:  https://openfoam.org
    \\  /    A nd           | Version:  11
     \\/     M anipulation  |
\*---------------------------------------------------------------------------*/
FoamFile
{
    format      ascii;
    class       volScalarField;
    location    "0.5";
    object      T;
}
// * * * * * * * * * * * * * * * * * * * * * * * * * * * * * * * * * * * * * //

dimensions      [0 0 0 1 0 0 0];

internalField   nonuniform List<scalar> 
5712
(
524.61
547.685
510.276
538.066
490.578
525.336
459.034
498.904
459.468
490.897
488.046
519.45
505.982
533.61
518.048
542.875
477.384
448.86
505.444
464.431
444.189
415.681
471.104
428.497
534.579
543.844
553.455
558.717
519.852
531.234
544.509
552.032
520.874
498.257
488.725
473.496
513.03
534.7
532.284
531.789
478.672
484.211
502.616
501.013
441.433
445.476
540.727
543.836
504.544
513.142
553.105
557.219
549.822
563.362
563.044
569.099
539.142
558.905
557.824
566.927
518.206
549.348
537.488
559.226
550.934
564.704
556.043
566.596
427.474
410.875
438.507
414.828
393.157
379.445
403.161
382.846
472.231
448.107
460.631
443.153
445.957
416.525
447.515
415.903
409.742
384.312
410.874
383.629
479.968
450.347
481.885
450.066
504.431
545.738
484.771
531.227
492.728
538.509
478.326
525.17
512.218
549.721
487.82
534.309
514.563
551.127
488.029
535.573
535.874
509.279
555.84
536.463
519.992
493.926
549.073
527.526
497.404
474.415
537.62
515.344
404.452
366.767
441.082
475.013
523.866
359.601
395.939
430.443
460.855
505.054
366.604
400.417
434.206
468.475
513.241
462.385
422.015
470.119
431.275
455.309
417.869
468.664
429.994
445.435
411.23
466.95
429.409
346.686
330.793
381.741
360.976
412.629
386.849
439.504
408.968
469.093
434.451
352.363
335.185
385.672
367.478
418.042
396.22
449.048
422.51
478.463
448.498
393.316
383.631
393.194
385.73
359.397
338.584
360.442
340.285
426.127
421.171
426.279
417.912
391.014
385.916
390.615
386.05
359.794
341.122
359.437
341.105
423.552
421.398
423.277
421.78
459.85
454.107
489.755
482.796
458.717
448.963
487.87
476.519
458.621
455.033
490.139
484.833
456.914
454.173
488.488
483.532
379.934
348.76
333.033
384.023
350.395
334.05
378.731
347.226
330.991
383.7
349.25
332.182
373.636
342.592
326.483
383.762
347.314
329.24
313.537
300.372
293.491
336.701
315.887
304.707
356.496
328.985
314.208
372.03
339.419
322.327
386.977
346.902
326.642
316.681
301.112
292.93
344.246
320.177
306.583
365.611
333.697
315.664
382.961
343.555
322.069
395.128
349.558
325.685
368.254
357.692
374.637
363.726
403.409
383.726
416.956
392.897
343.759
322.327
344.849
323.767
345.104
324.815
346.726
326.198
345.772
342.225
344.477
339.473
327.828
330.536
367.771
369.864
399.344
401.98
348.311
351.527
347.689
349.3
332.6
334.378
303.392
289.135
307.261
291.135
305.293
289.42
308.962
291.57
308.383
289.858
313.59
292.68
316.036
294.247
316.341
294.695
338.783
328.555
346.02
331.461
363.321
351.19
371.732
354.408
326.659
313.416
320.59
310.975
349.765
332.725
350.663
332.526
376.565
355.787
377.535
355.317
329.64
314.538
330.407
314.509
309.078
290.639
300.089
287.333
304.282
288.544
298.179
286.291
311.609
292.034
301.003
287.872
312.428
292.722
301.075
287.991
290.98
284.155
285.122
281.446
292.408
285.654
285.307
281.862
295.291
289.109
285.893
283.019
319.584
338.753
306.343
296.986
285.831
333.107
315.003
300.971
292.896
284.013
338.496
319.234
305.028
294.845
284.882
279.924
277.184
278.743
276.704
281.214
278.07
279.308
277.179
284.02
280.076
280.488
278.134
321.889
309.481
305.801
296.122
294.867
288.078
288.041
283.048
281.934
279.328
325.919
311.297
309.108
297.728
297.753
289.616
289.827
284.01
282.877
279.941
313.219
298.657
315.94
300.664
331.766
312.786
334.553
314.73
302.498
291.765
300.343
290.165
317.858
301.683
317.921
301.782
336.039
315.519
335.929
315.554
304.185
292.69
304.279
292.785
292.072
284.998
283.804
280.236
291.073
284.01
283.423
279.884
292.803
285.598
283.987
280.381
293.464
285.828
284.336
280.674
275.086
274.116
273.742
274.35
273.632
273.397
275.719
274.502
274.022
274.652
273.819
273.525
277.049
275.348
274.644
275.191
274.094
273.701
297.475
289.156
285.033
287.826
282.62
280.165
282.402
278.915
277.367
278.83
276.362
275.319
275.717
274.299
273.794
297.967
288.299
283.755
288.289
281.978
279.205
282.915
278.611
276.799
279.108
276.247
275.117
275.733
274.244
273.728
279.812
275.598
273.957
273.337
280.498
275.793
274.002
273.343
279.806
275.597
273.96
273.34
280.655
275.843
274.028
273.356
279.72
275.571
273.984
273.359
280.718
275.865
274.072
273.38
281.159
276.006
274.068
273.365
281.354
276.087
274.078
273.366
280.132
275.713
274.032
273.373
279.199
275.472
273.973
273.373
279.429
275.5
273.992
273.378
278.861
275.361
273.946
273.373
280.617
275.87
274.055
273.369
279.422
275.551
273.991
273.377
280.879
275.965
274.078
273.378
279.544
275.599
274.01
273.386
278.694
275.292
273.894
273.334
277.488
274.952
273.814
273.33
278.675
275.284
273.899
273.339
277.569
274.974
273.821
273.334
278.695
275.286
273.914
273.351
277.813
275.041
273.843
273.343
278.565
275.253
273.917
273.362
278.001
275.096
273.867
273.355
278.429
275.229
273.917
273.372
276.629
274.714
273.712
273.32
276.187
274.601
273.668
273.304
276.791
274.76
273.727
273.327
276.353
274.65
273.682
273.309
277.099
274.849
273.751
273.336
276.655
274.74
273.706
273.318
277.488
274.962
273.791
273.35
277.022
274.851
273.739
273.33
277.871
275.086
273.838
273.366
277.359
274.964
273.774
273.342
278.332
275.266
273.885
273.379
277.814
275.153
273.841
273.367
278.145
275.19
273.863
273.372
277.622
275.072
273.81
273.355
278.444
275.317
273.893
273.382
277.943
275.213
273.859
273.374
278.523
275.352
273.905
273.388
278.027
275.252
273.873
273.38
273.124
273.047
273.017
273.006
273.002
273.125
273.047
273.017
273.006
273.002
273.126
273.048
273.017
273.006
273.002
273.128
273.048
273.017
273.006
273.002
273.129
273.048
273.017
273.006
273.002
273.13
273.049
273.017
273.006
273.002
273.133
273.05
273.018
273.006
273.003
273.135
273.051
273.018
273.006
273.003
273.132
273.049
273.017
273.006
273.002
273.133
273.05
273.018
273.006
273.003
273.13
273.049
273.017
273.006
273.002
273.132
273.049
273.017
273.006
273.002
273.134
273.05
273.018
273.006
273.003
273.135
273.05
273.018
273.006
273.003
273.136
273.051
273.018
273.006
273.003
273.137
273.051
273.018
273.006
273.003
273.123
273.047
273.017
273.006
273.002
273.123
273.047
273.017
273.006
273.002
273.125
273.047
273.017
273.006
273.002
273.124
273.047
273.017
273.006
273.002
273.127
273.048
273.017
273.006
273.002
273.126
273.048
273.017
273.006
273.002
273.13
273.048
273.017
273.006
273.002
273.129
273.048
273.017
273.006
273.002
273.131
273.049
273.017
273.006
273.002
482.484
476.31
483.065
477.116
484.74
479.19
488.282
482.919
494.664
489.294
504.753
505.07
501.789
500.257
505.895
506.929
506.127
507.036
553.961
568.574
571.82
572.622
572.82
537.732
563.789
570.556
572.24
572.656
554.328
568.669
571.845
572.629
572.823
538.286
563.942
570.586
572.251
572.658
554.773
568.771
571.868
572.634
572.825
539.055
564.121
570.625
572.26
572.661
555.698
568.976
571.914
572.646
572.829
540.354
564.413
570.687
572.273
572.665
557.26
569.306
571.988
572.665
572.837
542.407
564.86
570.782
572.295
572.672
558.542
569.442
571.992
572.657
572.829
546.749
565.719
570.944
572.324
572.677
558.241
569.435
572.005
572.665
572.835
545.15
565.406
570.893
572.319
572.679
558.601
569.424
571.98
572.65
572.824
547.465
565.867
570.965
572.324
572.674
558.694
569.443
571.982
572.65
572.824
547.561
565.898
570.963
572.32
572.671
382.86
426.587
424.628
379.135
361.717
363.403
365.449
368.669
378.168
382.996
413.496
425.767
423.748
436.925
394.968
400.904
380.692
384.885
372.839
375.35
317.559
302.45
276.049
274.594
274.663
274.322
275.217
311.735
302.531
292.543
291.415
286.2
280.866
284.896
281.075
278.436
279.065
277.594
311.687
290.639
280.574
279.688
283.607
281.994
278.989
277.688
276.127
275.564
277.796
277.319
314.976
297.472
303.032
289.43
284.861
292.164
278.852
276.124
279.761
303.54
293.713
286.824
281.186
276.104
295.123
288.94
283.653
279.207
275.167
275.596
275.046
274.443
273.848
273.279
274.373
274.095
273.781
273.463
273.153
274.433
274.145
273.817
273.484
273.16
274.142
273.915
273.655
273.389
273.129
274.901
274.509
274.071
273.632
273.208
299.805
290.854
284.675
279.797
275.648
293.076
285.996
281.294
277.689
274.617
287.908
283.69
280.019
276.985
274.337
285.646
281.188
278.143
275.83
273.925
282.119
278.898
276.667
274.984
273.633
279.382
277.792
276.239
274.852
273.603
282.283
279.743
277.446
275.506
273.816
279.384
277.681
276.098
274.742
273.561
277.502
276.444
275.363
274.362
273.444
277.953
276.738
275.534
274.447
273.47
276.831
275.95
275.034
274.175
273.383
300.36
291.529
285.272
280.186
275.781
286.828
283.149
279.789
276.899
274.311
279.221
277.728
276.23
274.862
273.609
278.542
277.251
275.928
274.697
273.556
281.595
279.466
277.394
275.533
273.835
280.405
278.648
276.877
275.246
273.738
278.013
276.884
275.7
274.575
273.517
276.95
276.078
275.148
274.254
273.412
275.656
275.087
274.465
273.858
273.281
275.19
274.731
274.223
273.719
273.237
277.014
276.105
275.151
274.249
273.409
276.637
275.833
274.975
274.152
273.378
302.289
292.97
286.341
280.89
276.048
291.768
286.677
282.185
278.341
274.839
295.77
289.084
283.744
279.239
275.189
286.149
282.827
279.67
276.862
274.288
282.669
280.319
278.002
275.896
273.956
288.089
284.128
280.477
277.312
274.453
277.896
276.791
275.633
274.534
273.504
275.656
275.09
274.47
273.863
273.284
278.617
277.32
275.983
274.732
273.568
468.781
527.077
459.433
520.046
430.818
496.086
439.395
502.83
443.282
423.968
490.989
451.112
413.638
394.324
457.462
416.581
490.574
510.582
538.216
547.432
481.423
500.561
532.572
542.573
507.371
467.043
475.747
448.404
486.062
523.566
527.511
530.544
472.552
482.526
497.557
499.548
435.663
443.771
535.977
542.691
498.849
511.657
549.549
556.43
532.25
557.671
556.714
566.996
522.036
553.337
552.142
564.939
501.409
543.882
529
556.375
547.77
563.59
555.371
566.345
414.769
404.195
429.931
410.418
382.974
374.183
395.855
379.132
463.781
443.961
447.617
436.718
441.474
414.079
446.199
415.136
405.77
382.171
409.689
382.948
475.625
448.072
480.617
449.355
498.181
543.559
481.743
529.999
483.084
535.113
473.6
523.252
509.004
548.569
486.163
533.633
513.622
550.778
487.509
535.359
508.545
479.67
547.253
526.824
495.258
468.041
541.101
518.822
476.571
453.402
530.735
508.135
399.244
369.323
430.198
463.966
519.687
364.359
391.99
419.001
448.246
500.201
366.985
395.666
427.015
462.289
510.662
438.724
410.178
461.94
433.294
433.994
406.731
461.732
432.247
427.169
401.089
461.663
431.737
353.553
339.562
379.558
361.721
403.754
382.175
429.846
404.438
466.175
436.913
355.178
339.573
383.248
368.046
412.959
395.232
444.488
422.235
476.625
450.266
389.89
381.82
390.583
383.905
358.084
339.353
358.668
339.685
423.346
418.998
422.193
415.275
389.471
384.692
390.108
385.638
358.603
340.439
359.029
340.846
421.959
420.05
422.763
421.337
457.629
452.264
488.409
481.583
455.397
446.812
486.009
475.324
457.328
453.875
489.332
484.04
456.472
453.777
488.219
483.268
392.491
384.748
409.787
399.296
389.265
380.319
408.241
395.87
383.096
373.199
406.366
390.983
327.826
319.871
347.237
337.188
365.386
353.445
384.47
370.828
407.658
386.911
325.226
315.97
352.722
339.719
375.043
357.925
394.963
373.077
410.973
384.102
353.512
346.232
366.881
356.677
381.419
367.479
406.574
383.427
335.101
317.181
340.343
320.323
334.996
319.246
341.144
322.633
340.279
332.841
339.334
331.728
322.116
326.784
363.642
368.505
394.281
400.384
344.613
350.153
344.393
348.131
329.864
333.313
304.572
291.165
306.534
292.061
306.013
291.234
307.91
292.203
308.657
291.394
312.13
293.055
314.671
294.243
315.794
294.651
335.478
327.762
342.381
330.165
356.569
348.262
366.237
351.902
324.685
313.06
319.923
311.524
347.392
331.769
349.894
332.198
373.348
354.216
376.543
354.803
328.098
314.113
329.871
314.348
308.751
291.122
300.261
287.712
305.685
289.848
299.249
287.186
310.984
292.139
300.921
288.004
312.167
292.724
301.027
288.021
301.097
297.078
289.378
287.08
302.242
298.287
289.313
287.138
304.21
300.811
289.326
287.516
327.949
346.004
314.304
302.298
288.34
342.994
326.619
312.893
300.929
287.4
342.734
324.307
309.396
297.976
286.582
293.057
289.387
284.762
282.105
294.409
290.561
285.016
282.382
296.853
292.698
285.508
282.845
334.006
322.849
319.244
310.579
307.179
301.178
296.666
292.288
285.467
282.82
332.568
318.768
316.157
305.279
303.423
295.529
293.697
287.967
284.78
281.855
314.999
301.481
315.929
301.364
332.636
315.402
333.816
315.078
302.873
292.509
302.198
292.51
317.513
301.707
317.769
301.74
335.295
315.301
335.652
315.43
304.119
292.825
304.222
292.788
292.554
285.597
284.186
280.616
292.58
285.638
284.319
280.783
292.903
285.759
284.128
280.515
293.468
285.854
284.367
280.702
286.964
286.026
278.5
278.08
288.154
286.943
278.735
278.227
289.755
287.718
279.006
277.982
313.575
307.291
303.476
298.842
296.186
292.905
288.484
285.75
278.733
277.167
307.242
301.041
296.666
292.394
289.323
286.409
283.25
281.203
277.29
276.013
280.857
276.012
274.102
273.385
281.23
276.125
274.127
273.387
280.758
275.978
274.092
273.384
281.239
276.12
274.135
273.394
280.535
275.903
274.102
273.398
281.157
276.082
274.16
273.412
281.384
276.134
274.122
273.385
281.421
276.13
274.097
273.373
280.497
275.888
274.104
273.401
279.466
275.602
274.03
273.397
280.081
275.772
274.095
273.415
279.352
275.576
274.031
273.405
280.792
275.967
274.097
273.386
279.551
275.62
274.023
273.391
280.929
275.996
274.092
273.383
279.581
275.621
274.02
273.391
280.23
275.826
274.07
273.392
279.442
275.604
274.023
273.398
280.112
275.789
274.064
273.392
279.392
275.589
274.018
273.398
279.934
275.733
274.063
273.399
279.355
275.576
274.015
273.399
279.561
275.628
274.047
273.405
279.248
275.546
274.016
273.403
279.204
275.537
274.029
273.412
278.774
275.436
273.935
273.401
278.373
275.352
273.905
273.394
278.788
275.438
273.939
273.404
278.388
275.354
273.907
273.394
278.801
275.438
273.936
273.403
278.399
275.354
273.904
273.394
278.779
275.431
273.944
273.407
278.379
275.348
273.905
273.395
278.707
275.416
273.956
273.412
278.294
275.334
273.904
273.396
278.587
275.39
273.938
273.404
278.107
275.295
273.899
273.393
278.626
275.401
273.946
273.408
278.177
275.314
273.902
273.395
278.564
275.381
273.922
273.397
278.074
275.284
273.89
273.389
278.557
275.371
273.914
273.393
278.063
275.272
273.883
273.385
273.141
273.053
273.019
273.006
273.003
273.141
273.053
273.019
273.006
273.003
273.141
273.053
273.019
273.006
273.003
273.141
273.053
273.019
273.006
273.003
273.141
273.053
273.019
273.006
273.003
273.141
273.052
273.019
273.006
273.003
273.14
273.052
273.019
273.006
273.003
273.138
273.051
273.018
273.006
273.003
273.141
273.052
273.019
273.006
273.003
273.141
273.052
273.019
273.006
273.003
273.142
273.053
273.019
273.006
273.003
273.142
273.053
273.019
273.006
273.003
273.14
273.052
273.018
273.006
273.003
273.14
273.052
273.018
273.006
273.003
273.138
273.052
273.018
273.006
273.003
273.139
273.052
273.018
273.006
273.003
273.141
273.053
273.019
273.006
273.003
273.142
273.053
273.019
273.006
273.003
273.141
273.053
273.019
273.006
273.003
273.142
273.053
273.019
273.006
273.003
273.142
273.053
273.019
273.006
273.003
273.142
273.053
273.019
273.006
273.003
273.142
273.053
273.019
273.006
273.003
273.142
273.053
273.019
273.006
273.003
273.142
273.053
273.019
273.006
273.003
480.559
476.951
481.505
477.87
483.719
480.044
487.686
483.699
494.028
489.626
503.956
504.284
500.841
499.527
505.386
506.399
505.954
506.856
553.724
568.52
571.805
572.618
572.819
537.554
563.69
570.526
572.232
572.654
554.128
568.62
571.831
572.625
572.822
538.147
563.853
570.558
572.244
572.657
554.625
568.729
571.855
572.631
572.824
538.965
564.044
570.6
572.253
572.659
555.584
568.941
571.904
572.643
572.829
540.276
564.345
570.665
572.268
572.664
557.137
569.273
571.98
572.663
572.836
542.275
564.795
570.762
572.29
572.671
558.405
569.415
571.986
572.656
572.829
546.494
565.659
570.93
572.321
572.676
558.083
569.403
571.997
572.664
572.835
544.896
565.338
570.876
572.315
572.678
558.511
569.407
571.976
572.649
572.824
547.292
565.828
570.956
572.322
572.673
558.663
569.437
571.981
572.65
572.824
547.502
565.885
570.96
572.319
572.671
381.116
424.668
418.718
374.09
360.034
369.553
357.657
369.327
390.802
415.871
395.49
417.728
273.042
273.066
273.127
273.253
273.505
273.993
273.062
273.095
273.176
273.337
273.641
274.187
273.03
273.024
273.05
273.043
273.102
273.095
273.216
273.214
273.446
273.456
273.869
273.844
274.918
276.564
279.326
283.626
288.611
292.065
275.119
276.608
278.793
281.611
284.458
286.297
273.037
273.03
273.022
273.014
273.005
273.058
273.048
273.035
273.021
273.007
273.111
273.091
273.066
273.04
273.013
273.221
273.179
273.13
273.078
273.026
273.439
273.355
273.256
273.153
273.051
273.859
273.689
273.494
273.294
273.097
273.054
273.045
273.033
273.02
273.007
273.083
273.068
273.05
273.03
273.01
273.154
273.125
273.091
273.054
273.018
273.294
273.238
273.172
273.103
273.034
273.556
273.447
273.321
273.192
273.063
274.023
273.818
273.585
273.347
273.115
273.026
273.021
273.016
273.01
273.003
273.021
273.018
273.013
273.008
273.003
273.044
273.036
273.026
273.016
273.005
273.038
273.031
273.023
273.014
273.005
273.09
273.073
273.054
273.032
273.011
273.084
273.069
273.05
273.03
273.01
273.189
273.154
273.112
273.067
273.022
273.188
273.153
273.111
273.067
273.022
273.388
273.315
273.227
273.136
273.045
273.398
273.322
273.233
273.14
273.046
273.753
273.606
273.436
273.26
273.086
273.733
273.591
273.426
273.254
273.084
274.646
274.309
273.931
273.55
273.182
276.029
275.382
274.677
273.986
273.324
278.302
277.115
275.865
274.673
273.55
281.741
279.672
277.591
275.667
273.879
285.544
282.408
279.408
276.717
274.236
288.103
284.215
280.597
277.405
274.474
274.816
274.442
274.023
273.605
273.199
276.068
275.415
274.701
274
273.329
277.88
276.805
275.659
274.556
273.511
280.174
278.536
276.838
275.237
273.735
282.442
280.217
277.971
275.889
273.951
283.884
281.274
278.679
276.298
274.087
273.042
273.067
273.129
273.257
273.514
274.015
273.062
273.096
273.178
273.341
273.649
274.2
273.03
273.024
273.05
273.044
273.104
273.097
273.221
273.221
273.459
273.474
273.903
273.901
274.956
276.616
279.377
283.64
288.579
292.042
275.14
276.632
278.812
281.614
284.447
286.289
273.037
273.031
273.022
273.014
273.005
273.059
273.048
273.035
273.021
273.007
273.113
273.092
273.067
273.04
273.013
273.225
273.183
273.133
273.08
273.027
273.448
273.362
273.262
273.157
273.052
273.879
273.707
273.508
273.303
273.1
273.055
273.045
273.033
273.02
273.007
273.084
273.069
273.05
273.03
273.01
273.155
273.126
273.092
273.055
273.018
273.298
273.241
273.174
273.105
273.035
273.563
273.454
273.327
273.195
273.065
274.037
273.83
273.594
273.353
273.117
273.026
273.022
273.016
273.01
273.003
273.021
273.018
273.013
273.008
273.003
273.044
273.036
273.027
273.016
273.005
273.039
273.032
273.023
273.014
273.005
273.091
273.075
273.055
273.033
273.011
273.086
273.07
273.051
273.031
273.01
273.193
273.158
273.115
273.069
273.023
273.194
273.158
273.115
273.069
273.023
273.4
273.325
273.235
273.141
273.047
273.414
273.336
273.244
273.147
273.049
273.785
273.633
273.456
273.273
273.09
273.785
273.634
273.458
273.274
273.091
274.682
274.341
273.956
273.567
273.187
276.079
275.429
274.715
274.01
273.333
278.357
277.17
275.913
274.705
273.561
281.77
279.711
277.631
275.697
273.89
285.535
282.417
279.426
276.733
274.243
288.091
284.212
280.6
277.41
274.476
274.836
274.461
274.039
273.615
273.203
276.093
275.439
274.722
274.014
273.334
277.903
276.83
275.681
274.571
273.517
280.185
278.553
276.856
275.25
273.74
282.44
280.222
277.98
275.898
273.954
283.88
281.274
278.682
276.3
274.088
317.428
302.39
276.159
274.664
274.885
274.442
275.381
313.668
307.489
294.782
298.389
282.527
287.682
279.754
281.095
278.804
312.137
291.574
281.571
280.263
284.319
282.354
279.131
277.989
276.784
275.971
278.579
277.788
314.71
297.38
303.14
289.472
285.048
292.594
279.105
276.378
280.156
303.477
293.696
286.832
281.201
276.112
295.091
288.931
283.657
279.216
275.171
275.698
275.136
274.513
273.893
273.295
274.436
274.15
273.823
273.489
273.162
274.631
274.309
273.938
273.558
273.185
274.25
274.005
273.722
273.431
273.143
275.05
274.635
274.166
273.692
273.228
302.305
293.222
286.581
281.028
276.088
298.159
290.373
284.61
279.726
275.287
290.13
285.676
281.563
277.955
274.669
292.182
286.433
281.984
278.146
274.695
280.889
279.061
277.19
275.436
273.8
284.847
281.915
279.076
276.508
274.153
278.682
277.427
276.093
274.809
273.594
279.77
278.244
276.645
275.125
273.697
277.913
276.85
275.702
274.584
273.52
301.217
292.501
286.132
280.777
276.008
287.795
284.049
280.515
277.368
274.475
280.137
278.51
276.824
275.231
273.734
279.077
277.714
276.285
274.921
273.633
282.283
280.081
277.878
275.841
273.942
280.756
278.966
277.132
275.41
273.795
278.153
277.013
275.805
274.643
273.541
277.228
276.319
275.334
274.372
273.452
276.238
275.567
274.82
274.074
273.354
275.551
275.031
274.445
273.855
273.282
277.721
276.699
275.597
274.524
273.501
277.064
276.196
275.25
274.323
273.436
302.217
293.011
286.433
280.978
276.088
291.739
286.694
282.225
278.379
274.855
296.051
289.447
284.094
279.492
275.285
286.234
282.936
279.778
276.941
274.318
282.875
280.523
278.176
276.014
273.998
288.579
284.619
280.895
277.593
274.553
278.137
277.004
275.801
274.641
273.541
275.887
275.287
274.62
273.957
273.315
278.99
277.648
276.239
274.895
273.624
273.871
275.658
277.58
279.641
281.664
283.484
438.674
430.411
403.34
410.949
417.527
405.872
391.187
378.473
463.062
483.536
453.922
471.496
440.575
429.128
454.829
422.775
416.232
390.713
396.622
405.66
395.848
381.023
370.649
445.793
458.07
437.965
447.917
425.646
415.552
434.006
400.209
395.702
372.822
376.799
388.062
380.739
366.01
358.12
419.668
429.18
413.726
421.79
404.772
396.983
411.441
375.91
372.953
353.611
356.226
367.504
361.739
348.933
343.073
393.434
402.811
389.078
397.185
382.336
375.367
388.862
357.821
355.74
339.417
341.285
351.594
347.131
335.969
331.386
373.125
383.604
369.776
379.368
364.971
359.349
372.761
345.385
343.77
329.667
331.13
340.591
337.364
326.892
323.214
359.794
372.888
357.028
368.878
353.574
349.17
362.541
350.47
347.237
373.493
378.642
342.833
337.636
365.349
355.889
329.277
311.686
328.523
313.188
325.184
324.704
315.571
344.305
341.41
364.584
368.878
337.467
332.886
357.696
349.433
323.69
307.338
323.079
308.865
319.986
319.922
310.937
334.588
332.257
351.271
354.418
329.082
325.269
346.099
339.666
317.329
302.576
316.709
303.813
314.18
314.107
305.538
322.948
321.229
336.25
338.431
318.659
315.257
332.563
327.396
309.354
297.653
308.903
298.527
306.898
306.632
299.911
314.02
312.71
325.016
326.624
310.711
307.905
322.231
318.164
303.109
294.36
302.779
294.883
301.378
301.045
295.964
307.838
306.789
317.294
318.571
305.326
303.261
315.041
311.793
299.227
292.368
298.986
292.743
297.926
297.753
293.672
525.456
548.405
510.315
538.003
490.592
525.309
459.021
498.88
459.455
490.869
488.072
519.429
506.053
533.579
519.014
543.759
477.379
448.848
505.423
464.416
444.171
415.664
471.082
428.48
535.254
544.334
553.992
559.084
519.846
531.208
544.426
551.964
520.842
498.244
488.705
473.483
513.011
534.665
532.275
531.783
478.66
484.2
502.604
501.003
441.418
445.463
540.715
543.83
504.532
513.134
553.094
557.215
550.173
563.501
563.285
569.189
539.108
558.89
557.779
566.91
518.185
549.338
537.462
559.215
550.924
564.7
556.039
566.594
427.463
410.865
438.495
414.818
393.143
379.433
403.147
382.836
472.218
448.098
460.618
443.143
445.946
416.516
447.504
415.894
409.73
384.302
410.861
383.62
479.958
450.338
481.876
450.058
504.418
545.733
484.764
531.223
492.715
538.504
478.318
525.166
512.209
549.717
487.814
534.306
514.555
551.124
488.023
535.57
536.334
509.791
556.034
536.729
519.953
493.885
549.053
527.495
497.382
474.394
537.608
515.331
404.442
366.757
441.071
475
523.859
359.593
395.929
430.432
460.841
505.046
366.595
400.408
434.196
468.465
513.236
462.852
422.333
470.453
431.509
455.278
417.859
468.648
429.99
445.416
411.219
466.94
429.404
346.679
330.788
381.732
360.97
412.619
386.841
439.492
408.959
469.086
434.447
352.355
335.179
385.663
367.471
418.033
396.213
449.04
422.504
478.458
448.494
393.307
383.624
393.186
385.723
359.388
338.578
360.434
340.279
426.12
421.165
426.271
417.905
391.007
385.91
390.607
386.044
359.786
341.117
359.429
341.099
423.546
421.393
423.27
421.774
459.845
454.102
489.751
482.793
458.71
448.957
487.865
476.515
458.616
455.028
490.135
484.829
456.909
454.168
488.484
483.529
380.153
348.9
333.139
384.201
350.514
334.137
378.735
347.234
330.997
383.703
349.259
332.19
373.634
342.595
326.487
383.761
347.317
329.244
313.534
300.37
293.491
336.697
315.885
304.706
356.492
328.984
314.209
372.026
339.42
322.328
386.974
346.903
326.644
316.678
301.11
292.929
344.242
320.176
306.583
365.606
333.695
315.664
382.957
343.554
322.07
395.125
349.558
325.686
368.199
357.66
374.582
363.694
403.371
383.702
416.918
392.873
343.648
322.336
344.7
323.755
345.017
324.761
346.641
326.151
345.723
342.174
344.443
339.438
327.785
330.495
367.747
369.846
399.325
401.964
348.278
351.507
347.663
349.282
332.571
334.36
303.417
289.137
307.278
291.134
305.271
289.414
308.943
291.564
308.359
289.85
313.565
292.672
316.015
294.238
316.327
294.689
338.763
328.541
346
331.449
363.304
351.177
371.715
354.396
326.639
313.405
320.57
310.963
349.749
332.714
350.649
332.517
376.55
355.777
377.522
355.307
329.623
314.528
330.394
314.501
309.063
290.632
300.08
287.328
304.268
288.537
298.17
286.286
311.595
292.027
300.995
287.868
312.418
292.716
301.069
287.987
290.956
284.122
285.117
281.437
292.403
285.653
285.303
281.86
295.28
289.104
285.888
283.016
319.572
338.743
306.331
296.976
285.826
333.097
314.993
300.962
292.889
284.009
338.486
319.223
305.018
294.837
284.878
279.898
277.164
278.738
276.699
281.214
278.071
279.307
277.178
284.018
280.075
280.486
278.132
321.883
309.477
305.795
296.118
294.861
288.074
288.036
283.045
281.93
279.325
325.911
311.291
309.101
297.724
297.746
289.612
289.821
284.006
282.874
279.938
313.21
298.652
315.932
300.659
331.757
312.781
334.545
314.724
302.491
291.761
300.336
290.161
317.851
301.678
317.915
301.778
336.031
315.514
335.922
315.549
304.178
292.686
304.274
292.781
292.066
284.995
283.8
280.234
291.067
284.007
283.419
279.882
292.798
285.595
283.984
280.379
293.46
285.825
284.333
280.672
275.074
274.107
273.734
274.35
273.63
273.395
275.72
274.503
274.023
274.651
273.819
273.525
277.049
275.348
274.644
275.19
274.094
273.701
297.472
289.154
285.032
287.823
282.619
280.164
282.4
278.914
277.367
278.829
276.361
275.318
275.716
274.298
273.794
297.964
288.298
283.754
288.287
281.976
279.205
282.913
278.611
276.798
279.106
276.246
275.116
275.733
274.243
273.728
279.811
275.598
273.957
273.337
280.494
275.792
274.002
273.343
279.804
275.596
273.96
273.34
280.653
275.843
274.028
273.356
279.717
275.571
273.984
273.359
280.715
275.864
274.071
273.38
281.157
276.005
274.068
273.365
281.351
276.086
274.078
273.365
280.129
275.712
274.032
273.373
279.197
275.471
273.973
273.373
279.427
275.499
273.991
273.378
278.859
275.36
273.946
273.373
280.615
275.869
274.054
273.369
279.42
275.55
273.991
273.376
280.877
275.965
274.077
273.378
279.542
275.599
274.009
273.386
278.694
275.292
273.894
273.334
277.486
274.951
273.814
273.33
278.673
275.284
273.898
273.339
277.568
274.973
273.821
273.334
278.693
275.286
273.914
273.351
277.812
275.041
273.842
273.343
278.563
275.253
273.917
273.362
277.999
275.095
273.866
273.355
278.426
275.229
273.917
273.372
276.627
274.713
273.711
273.32
276.184
274.6
273.667
273.304
276.79
274.76
273.727
273.327
276.353
274.65
273.682
273.309
277.097
274.848
273.751
273.336
276.654
274.74
273.706
273.318
277.486
274.961
273.791
273.35
277.021
274.85
273.739
273.329
277.869
275.085
273.838
273.366
277.357
274.963
273.774
273.342
278.33
275.265
273.884
273.379
277.812
275.153
273.841
273.366
278.143
275.189
273.863
273.372
277.62
275.071
273.81
273.355
278.442
275.316
273.893
273.382
277.942
275.212
273.859
273.374
278.521
275.351
273.905
273.388
278.025
275.251
273.873
273.38
273.124
273.047
273.017
273.006
273.002
273.125
273.047
273.017
273.006
273.002
273.126
273.048
273.017
273.006
273.002
273.128
273.048
273.017
273.006
273.002
273.129
273.048
273.017
273.006
273.002
273.13
273.049
273.017
273.006
273.002
273.133
273.05
273.018
273.006
273.003
273.135
273.051
273.018
273.006
273.003
273.132
273.049
273.017
273.006
273.002
273.133
273.05
273.018
273.006
273.003
273.13
273.049
273.017
273.006
273.002
273.132
273.049
273.017
273.006
273.002
273.134
273.05
273.018
273.006
273.003
273.135
273.05
273.018
273.006
273.003
273.136
273.051
273.018
273.006
273.003
273.137
273.051
273.018
273.006
273.003
273.123
273.047
273.017
273.006
273.002
273.123
273.047
273.017
273.006
273.002
273.125
273.047
273.017
273.006
273.002
273.124
273.047
273.017
273.006
273.002
273.127
273.048
273.017
273.006
273.002
273.126
273.048
273.017
273.006
273.002
273.13
273.048
273.017
273.006
273.002
273.129
273.048
273.017
273.006
273.002
273.131
273.049
273.017
273.006
273.002
482.557
476.404
483.085
477.132
484.745
479.194
488.282
482.919
494.662
489.292
504.751
505.068
501.786
500.255
505.893
506.926
506.125
507.034
554.08
568.608
571.83
572.625
572.822
537.795
563.811
570.563
572.242
572.657
554.32
568.668
571.844
572.629
572.823
538.293
563.945
570.587
572.252
572.659
554.772
568.771
571.868
572.634
572.825
539.058
564.122
570.626
572.26
572.661
555.697
568.976
571.914
572.646
572.829
540.354
564.413
570.687
572.273
572.665
557.26
569.306
571.988
572.665
572.837
542.407
564.86
570.782
572.295
572.672
558.541
569.442
571.992