/*--------------------------------*- C++ -*----------------------------------*\
  =========                 |
  \\      /  F ield         | OpenFOAM: The Open Source CFD Toolbox
   \\    /   O peration     | Website:  https://openfoam.org
    \\  /    A nd           | Version:  11
     \\/     M anipulation  |
\*---------------------------------------------------------------------------*/
FoamFile
{
    format      ascii;
    class       volScalarField;
    location    "1.7";
    object      gradTx;
}
// * * * * * * * * * * * * * * * * * * * * * * * * * * * * * * * * * * * * * //

dimensions      [0 -1 0 1 0 0 0];

internalField   nonuniform List<scalar> 
5712
(
-6859.81
-8768.4
-16258.9
-23769.4
-24257.3
-41855.5
-18611.8
-47399.7
-15145.4
-33278.8
-22651.9
-34471.6
-20307.8
-26660.5
-8937.14
-10227.1
-15361
-17608.8
-19803.6
-19638.8
-15555
-19195.6
-22907.3
-20534.5
-5599.75
-4231.31
-6960.42
-4700.59
-12992.8
-10434.9
-22148.5
-16090
-17143.1
-17842.5
-19084.3
-18297.1
-6769.28
-5261.76
-40485.2
-54190.1
-26168.3
-32118.5
-54333.9
-70516.9
-28103.4
-32178.2
-30070.4
-42464.9
-26266.7
-34791.6
-15412.5
-24795.6
-2982.55
-1007.8
-3135.9
-1132.65
-8996.68
-3639.77
-12308.1
-4539.18
-8803.79
-3369.76
-9297.87
-2986.32
-15812.9
-5038.56
-20390.3
-6889.33
-24754.6
-12336.5
-22662.4
-13427.4
-23126.6
-14965.6
-20346.1
-15253.3
-17894.8
-10642.5
-17920.4
-9175.57
-23387.3
-14910.9
-23442.6
-15037.2
-21497.7
-16120.7
-21758
-16178.4
-19317.5
-12255
-20004.5
-12546.8
-18321.6
-7971.57
-8502.83
-10406.5
-18395
-8730.19
-7453.11
-10595.5
-19392.8
-7919.39
-9611.31
-10453.7
-20351.3
-8104.01
-10440.1
-10903.6
-3862.29
-4225.29
-1303.86
-2583.18
-11275.4
-11931.4
-4390.71
-7874.46
-14445.7
-16010.8
-7061.81
-12052.7
-12305.4
-897.799
-13846.9
-17263.9
-9476.65
-550.437
-7337.92
-12540.1
-20305.9
-14412.2
-10207.7
-12476
-11016.3
-9598.9
-15102.2
-3680.51
-3010.77
-2112.85
-2090.23
-10341.3
-8641.81
-6298.5
-5975.2
-12869.5
-10754.1
-8223.61
-7350.65
-5787.71
-7418.44
-12031.1
-12522.6
-14343.1
-13029.2
-16195.3
-14018.6
-11169.4
-9408.57
-9181.09
-9540.27
-12155.8
-9403.75
-11144.9
-7934.58
-9712.09
-6549.06
-11462.9
-7450.59
-10361.9
-4607.46
-8946.6
-9571.84
-12701.8
-16423.1
-13992.5
-20274.7
-7154.75
-7828.28
-9204.77
-2674.9
-7992.37
-15296.7
-7592.9
-16442.3
-13863.9
-25056.9
-14109.7
-26640.2
-6088.58
-13215.1
-5552.48
-14124.6
-8444.34
-6269.2
-11823.4
-4590.8
-8610.85
-1434.31
-10264.8
-519.052
-8142.53
-9503.37
-12399.6
-5686.51
-6758.38
-11241.7
-10995.1
-7487.12
-2364.54
-2065.23
-1815.49
-1704.01
-1549.86
-1368.11
-6967.83
-5617.75
-4790.43
-4521.78
-3565.63
-3045.78
-8437.26
-7160.94
-6562.13
-5425.61
-4331.7
-4051.23
-6435.12
-5580.57
-5402.36
-10845.6
-8053.05
-6698.35
-10350.2
-7466.55
-5958.42
-10836.6
-8381.74
-7208.06
-6919.57
-4454.46
-3418.1
-15596
-13242.8
-11296.4
-10140
-8268.97
-6725.86
-9140.2
-6938.63
-5401.28
-7784.51
-5486.25
-4095.35
-8186.11
-4475.74
-2444.5
-10550.2
-14250.7
-8377.28
-10782.1
-11456.8
-16780.3
-10263.6
-14879.1
-22.6402
-713.969
520.115
-101.496
-2967.82
-3330.12
-1239.84
-663.862
-700.446
-2402.58
-9483.07
-13802
-6661.27
-3713.55
-10081.5
-10010.6
-15634.2
-17226.3
617.53
4217.52
-7652.3
-7204.78
-7287.21
-5615.83
-1017.24
-535.478
-677.043
-282.057
-1957.72
-158.315
358.255
860.845
-9246.07
-2329.05
-6296.5
-1610
-9131.05
-2764.11
-11051.1
-3523.58
-8953.7
-11994.5
-8262.56
-11683.8
-14501.2
-15261.7
-13820.1
-14429.4
-5639.9
-9339.03
-6525.06
-9287.86
-8761.6
-11244.7
-9658.44
-11347.1
-14394.4
-14158.6
-15065.2
-14204.3
-5689.28
-9026.53
-6186.01
-9180.18
251.25
-1197.95
-7231.08
-4367.32
802.498
-790.379
-6699.09
-3849.38
-210.502
-1465.55
-7386.79
-4766.35
-655.553
-1731.08
-7411.7
-4924.82
712.279
815.98
-150.935
8.95232
2968.6
2986.99
263.388
445.13
687.058
2054.52
-1553.21
-875.304
10260.9
9702.6
5582.15
4327.46
543.952
10604.4
10782.1
4299.75
6371.28
954.29
-10421.3
-8091.65
-7065.81
-6520.35
-3809.71
808.259
730.422
61.4605
-23.997
2561.66
2449.88
196.457
-17.1015
2590.96
3043.33
-541.792
-800.548
5121.74
2235.44
8070.03
4951.78
3605.53
2676.13
4092.89
3483.72
-262.734
-1117.6
-3825.63
-2405.74
-1058.52
973.826
-945.42
766.219
-1545.35
-247.14
-1820.47
-2053.21
-5184.74
-4706
-9872.53
-5930.98
-8162.72
-8150.32
-12380.2
-9991.44
-7655.43
-4448.66
-3781.52
-3722.28
-11646.4
-5114.23
-12808.1
-5735.5
-13808.9
-10199.1
-14734.7
-10947
-9312.84
-3603.97
-10434.4
-4185.27
-5869.38
-4552.68
-4322.37
-6378.88
-3742.81
-4168.3
-3672.43
-5910.31
-6798.62
-4477.83
-4894.02
-7332.18
-8312.58
-4865.03
-6219.88
-7564.45
717.267
748.298
833.52
39.8987
263.945
292.552
2604.58
2707.99
2683.7
242.625
754.822
750.026
3321.28
3618.96
3675.47
-463.723
739.982
983.128
1146.09
966.287
663.355
3528.17
3564.3
3297.17
2873.95
3193.23
3118.13
3564.66
3748.14
3623.45
-1134.11
338.218
442.401
-3503.17
-2009.66
-1089.3
883.097
1910.56
2456.46
884.285
2172.18
2728.42
421.989
1796.69
2187.05
-2015.03
463.106
752
30.385
35.6215
41.8164
61.9608
255.568
138.37
111.29
102.869
20.1155
69.2775
156.767
231.685
416.788
252.873
279.381
284.972
-193.851
25.2108
226.286
417.959
159.81
202.411
249.947
273.476
34.9047
119.218
113.402
107.774
-200.513
-10.4827
101.024
166.121
-869.12
-183.234
64.0023
235.274
-1351.29
-317.097
-24.7025
415.22
-590.74
-76.0507
143.818
364.73
-1104.38
-239.78
-40.721
358.574
-932.246
-219.367
93.1292
308.65
-1519.52
-377.935
-28.439
491.026
-1042.54
-287.769
88.4071
373.037
-1639.23
-432.325
-47.8576
512.947
13.7237
21.439
37.2559
79.0167
42.4944
30.3171
20.8325
71.752
82.6435
73.9859
119.475
216.444
173.643
102.532
67.6973
195.162
-352.832
-44.9039
124.433
365.51
-141.588
29.8488
85.0265
343.602
-42.8467
112.152
192.629
369.629
11.2376
92.1419
70.5464
346.145
-939.873
-181.456
-4.05431
480.609
84.7202
42.4478
28.2845
55.8222
154.235
61.6949
31.0322
26.6537
177.667
101.3
59.4757
141.922
395.547
164.406
77.2015
68.0955
118.665
113.466
81.0243
232.493
505.907
231.582
116.261
106.891
-55.7828
104.092
101.737
323.947
410.269
250.712
137.186
134.834
-470.34
16.3655
37.1287
304.012
143.338
215.983
122.603
135.825
-1090.11
-113.601
17.8939
348.134
-340.171
51.5536
71.9759
122.253
-829.827
-31.2337
28.9298
323.393
-184.205
125.465
100.973
134.771
-1327.43
-211.54
-12.5365
378.308
-477.151
-19.0197
44.7536
113.737
-1504.45
-306.426
-53.6729
372.435
-600.335
-92.9224
9.45915
97.7974
27.1932
11.517
5.6175
3.10852
2.12949
35.6864
17.4399
9.08617
5.15609
3.56244
64.8718
26.6375
12.8967
7.13286
4.88843
80.1649
38.7594
20.1757
11.4693
7.93425
86.0343
33.2859
15.8802
8.7578
5.99994
107.023
50.997
26.5185
15.0922
10.4483
55.6483
25.9592
13.4321
7.6493
5.30146
39.9952
15.3729
7.24049
3.98956
2.73907
85.3493
33.6812
16.3271
9.08044
6.24186
40.9699
13.938
6.37863
3.48281
2.3804
90.0496
38.9433
19.7461
11.1482
7.69688
38.7965
13.8691
6.54753
3.60896
2.47373
65.9942
22.1712
9.9443
5.38672
3.67605
38.7924
12.3795
5.52625
3.00062
2.05036
58.1388
14.5993
5.26976
2.59032
1.71338
32.1832
6.97094
2.31033
1.09659
0.717497
22.8855
8.84517
4.18962
2.29416
1.56578
16.6357
7.03039
3.48287
1.93702
1.32786
55.9802
22.0682
10.6764
5.90761
4.04914
43.0125
18.4394
9.27259
5.19443
3.57268
78.5297
27.3319
12.709
6.95221
4.75192
58.3866
25.3519
12.9033
7.26891
5.01286
69.7702
30.2263
15.471
8.74415
6.03521
39.6441
19.137
10.0544
5.72152
3.95833
35.8197
16.3837
8.54324
4.85054
3.35216
-286.491
-429.859
-609.44
-1040.05
-551.108
-1277.2
45.7489
-971.458
724.108
34.6414
-631.263
-1163.36
452.199
362.096
-1128.09
-1835.48
-1477.22
-2129.49
-674.903
-157.813
-35.7127
-7.92103
-1.99568
-210.511
-99.5019
-13.8797
-3.73842
-1.66128
-2072.09
-482.09
-109.467
-24.1589
-6.095
-497.073
-137.038
-33.7556
-7.1424
-1.94679
-3471.71
-809.252
-184.252
-40.8012
-10.272
-795.819
-233.986
-57.3215
-13.4045
-3.3909
-4636.8
-1083.9
-247.819
-55.0518
-13.8783
-923.722
-294.176
-74.3866
-17.5831
-4.4356
-5759.47
-1359.63
-313.056
-69.9051
-17.6995
-1019.03
-357.776
-93.1079
-22.2851
-5.68692
-6754.19
-1643.14
-383.651
-86.4244
-21.99
-1626.11
-503.145
-125.135
-28.9229
-7.29
-6315.96
-1531.74
-356.07
-79.8688
-20.2539
-1240.63
-422.933
-108.725
-25.6718
-6.48296
-6945.98
-1691.67
-395.695
-89.281
-22.754
-1856.72
-554.127
-135.625
-30.8896
-7.76271
-7227.44
-1744.9
-408.659
-92.1608
-23.4745
-1932.36
-577.914
-142.638
-30.1885
-8.02299
-521.191
-7153.23
-6527.91
-2321.23
1687.41
2864.71
7966.68
11650.5
1795.89
8555.43
-1735.39
2586.34
2523.26
5032.27
9551.78
13534.8
14437
18137.9
5897.79
7641.1
-19987.5
-14388
-4518.49
-3453.91
-2470.93
-3503.57
-3328.34
-12193.6
-11426
-9832.74
-10455
-8506.59
-6127.17
-8079.56
-5248.91
-4448.55
-5365.95
-3683.35
-19800.3
-10156.7
-3488.78
-5987.36
-8266.32
-5725.36
-6178.38
-4572.02
-2731.9
-3853.32
-4151.78
-4501.15
-19632.9
-12796.7
-12118.7
-8710.37
-8578.75
-9080.7
-3768.57
-4934.41
-6389.47
-14069.5
-11994.5
-9883.15
-8905.2
-7433.86
-9289.91
-6312.21
-4814.91
-3607.13
-1809.19
-3974.34
-3279.95
-2444.79
-1515.92
-516.906
-3076.7
-2567.41
-1925.06
-1192.56
-404.321
-2189.25
-1814.31
-1350.14
-830.95
-280.59
-3126.38
-2611.49
-1957.3
-1210.42
-409.546
-2945.67
-2440.48
-1818.18
-1121.62
-379.627
-7748.81
-5840.65
-4483.6
-4042.65
-4237.43
-6177.13
-4473.66
-3125.79
-2540.65
-1746.07
-6126.58
-3676.45
-2515.6
-1715.24
-804.771
-5343.01
-3561.02
-2334.62
-1665.17
-964.065
-3962.17
-2456.88
-1513.15
-1027.65
-495.079
-4830.69
-3589.49
-2463.3
-1462.04
-500.099
-5494.97
-3531.59
-2297.26
-1363.05
-503.442
-3444.32
-2066.49
-1239.05
-669.648
-224.675
-3653
-2806.78
-1965.62
-1169.66
-393.114
-4270.41
-3175.98
-2156.02
-1250.72
-414.109
-3058.26
-2370.49
-1666.24
-988.708
-329.518
-12964.6
-9742.75
-7714.94
-6676.95
-6163.97
-7434.98
-5348.62
-3866.51
-2581.43
-1138.67
-2891.37
-2250.36
-1601.72
-970.713
-332.87
-5046.78
-4007.26
-2913.18
-1800.35
-627.978
-6735.67
-5247.55
-3823.45
-2432.53
-910.621
-4846.79
-3877.86
-2849.91
-1783.09
-628.422
-5321.4
-4318.7
-3196.28
-1993.75
-692.454
-3961.63
-3221.01
-2373.94
-1465.19
-500.781
-2348.24
-1884.49
-1364
-824.847
-276.84
-3382.22
-2776.61
-2051.36
-1258.26
-424.934
-3518.8
-2790.48
-2007.26
-1215.53
-411.223
-3882.64
-3138.54
-2298.03
-1409.74
-479.909
-13499.7
-11017.3
-9020.36
-7826.21
-6605.98
-8824.82
-6264.61
-4747.01
-3444.25
-1714.33
-8860.92
-6942.2
-5199.65
-3761.53
-1789.4
-6805.67
-5119.78
-3804.16
-2548.93
-1023.7
-7112.59
-5642.15
-4171.81
-2677.13
-995.758
-7039.3
-5256.98
-3881.43
-2588.77
-1026.73
-3218.25
-2585.69
-1895.51
-1174.5
-406.805
-4333.25
-3564.13
-2643.24
-1629.47
-552.67
-5472.14
-4411.45
-3245.01
-2015.16
-697.668
-5793.63
-11818.4
-12271.5
-33702.8
-12057.8
-44987.3
-6594.19
-16021.8
-12068.2
-9298.05
-20115
-16739.1
-11989.8
-11224.8
-22505.4
-17748.1
-4270.7
-3178.83
-8286.79
-5708.65
-9564.18
-7212.02
-25730.5
-19050.2
-15739.9
-11908
-16193.3
-9612.23
-1215.32
-3902.06
-41887.8
-54768.1
-25288.3
-31970.5
-55236
-70891.1
-27133.3
-31944.9
-31266
-43082.2
-25462.9
-34737.5
-16968.2
-25537.6
-2049.83
-541.892
-3607.9
-1232.15
-6971.04
-3122.83
-14159.1
-5119.88
-3055.72
-1741.74
-7652.3
-2409.92
-15833.9
-4980.71
-20576.3
-6940.13
-16939.1
-8804.43
-19591.6
-11626.6
-15337.7
-10991.5
-17294.5
-13354.2
-15726.3
-9204.15
-12422.2
-6448.63
-22202.4
-14102.2
-23146.8
-14816.4
-20282.3
-15296
-21432.8
-15954.3
-18521.8
-11592.4
-19817.1
-12364.1
-17283.2
-7663.73
-7551.21
-10016.5
-15456
-7845.15
-5680.97
-9876.8
-19119
-7841.2
-9168.56
-10263.8
-20320.7
-8097.31
-10315.6
-10848.8
-1177.63
-1066.64
-288.994
-1286.84
-4787.13
-4971.93
-3018.06
-6031.03
-2718.37
-3387.91
-4714.97
-8933.49
-12269.7
-9699.54
-9631.1
-12107.8
-8067.85
-7606.53
-8223.26
-7149.6
-14044.7
-12408.2
-11825.8
-10021
-7058.74
-6122.95
-13426.1
-1154.58
-864.598
-650.521
-730.512
-4460.15
-3530.8
-3803.68
-3353.59
-684.631
489.927
-4506.3
-3542.77
-10184.6
-10814.3
-9548.44
-8753.21
-7256.15
-5270.09
-9547.4
-7587.71
-8706.19
-6818.88
-11693
-11808.5
-10076.1
-7762.3
-7523.22
-5013.87
-6698.83
-4166.73
-10128.6
-6116.87
-9415.03
-4987.38
-8417.74
-9520.39
-13171.6
-17448.8
-13903.1
-20280.3
-6507.31
-7657.75
-7866.57
-2776.41
-7782.62
-15177.7
-7538.94
-16392.8
-13763.7
-25169
-14073.3
-26624.7
-5831.82
-13070.9
-5487.78
-14077.5
-7980.55
-6191.61
-11645.4
-4650.13
-7639.43
-1698.22
-10010
-1140.8
-7952.81
-9421.53
-12317.2
-5690.08
-6706.05
-11212.3
-10971.2
-7478.85
-846.573
-785.06
-585.508
-675.583
-2689.65
-1969.51
-2457.52
-2238.05
1065.54
547.4
-2875.8
-3178.4
-10680.2
-10082.8
-7777.57
-6658.04
-4195.91
-3504.77
-5959.58
-4897.66
-5739.2
-4176.4
-18333.2
-15931.9
-8083.74
-6782.91
-6227.67
-4648.37
-5214.41
-3273.28
-5635.54
-2380.85
-5629.04
-9269.12
-4915.94
-9433.6
-8494.14
-10568.2
-9567.21
-13020.9
-976.698
-691.484
-737.572
-616.336
-3617.99
-2536.48
-2931.99
-1585.87
-1291.5
-1589.25
-8328.43
-8921.42
-4634.63
-4169.68
-9470.2
-9855.46
-14724.4
-16965.4
442.074
4058.16
-7362.7
-7176.65
-7134.44
-5636.88
-1040.74
-930.682
-1132.29
-925.316
-1649.44
-1063.68
-506.424
-404.92
-8049.63
-3609
-6839.89
-3013.47
-9326.09
-3598.3
-11134
-3861.47
-5355.35
-10256.7
-7008.08
-10748.4
-8776.65
-11824.3
-11593.6
-12824.3
-5150.7
-9090.37
-4633.01
-9047.84
-8231.55
-10850.4
-9500.29
-11241.5
-13449.1
-13481.6
-14794.2
-14020.9
-5541.57
-8938.78
-6151.54
-9163.67
-275.817
-1955.14
-7603.55
-4972.67
-252.685
-2021.59
-7533.2
-4759.19
-601.981
-1996.04
-7588.75
-5134.29
-816.262
-1944.05
-7471.24
-5050.84
-1038.32
-1129.51
-961.991
-1025.9
-1993.82
-2021.13
-1309.89
-1397.65
-8232.62
-7508.38
-3670.08
-3646.53
-3623.14
-5122.2
-3908.74
-79.6681
-1578.05
-1195.64
-1317.74
-3559.33
2778.29
-628.706
-13986.2
-11732.3
-10432.4
-8908.83
-5342.2
-1128.23
-1004.04
-1146.46
-1401.39
-1987.78
-1548.58
-1789.74
-2368.97
-7794.18
-7612.43
-4031.02
-5160.9
-4987.53
-6674.16
-3073.21
-5001.88
-4709.39
-5123.99
-965.53
-1351.74
-2551.39
-3846.65
-9684.34
-7905.76
-7524.98
-5487.8
-6439.43
-4564.11
-5560.1
-3980.31
-3874.01
-4212.41
-8191.26
-8054.46
-11080.5
-7118.97
-10406.3
-11115
-13054.8
-10959.3
-9119.23
-5590.06
-6665.16
-6616.25
-12105.7
-5845.96
-12923.6
-5910.24
-13973.2
-10817.4
-14762
-11076.4
-9974.99
-4313.94
-10618.4
-4371.73
-7253.19
-5572.89
-5530.86
-7509.36
-6170.89
-6474.58
-5442.31
-7785.3
-7513.47
-5140.36
-5574.17
-8047.08
-8534.09
-5071.11
-6438.78
-7767.08
-794.413
-688.301
-1008.56
-754.903
-1335.88
-1606.26
-1458.27
-1100.93
-7385.12
-6468.66
-3417.37
-1540
-7824.43
-7396.11
-6021.29
-5398.21
-4949.7
-4253.85
-1713.87
-1797.23
-3660.51
-1687.65
-8604.18
-7347.01
-4814.12
-3854.91
-3668.11
-2398.3
-2613.84
-1232.86
-3789.58
-93.3201
-208.344
-93.6453
-32.4526
18.3346
-188.893
-114.965
-34.4978
16.1354
-565.037
-245.299
-4.72406
146.084
-496.575
-279.391
-18.5119
107.958
-932.414
-366.695
34.011
335.62
-906.496
-432.085
-135.905
21.3446
-628.955
-292.062
-141.339
-44.6081
-489.968
-196.095
-14.5548
94.8716
-1407.07
-487.985
-126.741
103.607
-1669.71
-474.74
-110.043
397.909
-1344.15
-465.385
-80.119
219.153
-1513.66
-425.998
-135.408
356.748
-1320.47
-451.419
-44.8137
232.048
-1732.79
-490.494
-95.6486
466.201
-1201.13
-385.837
29.2479
339.297
-1716.92
-475.104
-73.763
503.536
-194.61
-77.6483
-12.3011
57.8233
-167.211
-58.9616
-26.5182
54.0982
-501.428
-202.233
-15.9949
153.05
-419.981
-154.452
-67.4646
141.042
-997.644
-343.683
-13.4527
322.875
-904.9
-297.632
-83.3446
290.977
-1105.58
-399.505
-70.5463
244.931
-834.275
-279.278
-108.325
323.852
-1522.07
-423.98
-119.868
508.636
-121.26
-43.9561
-13.1742
36.5328
-56.7696
-30.1913
-12.5281
0.703627
-364.994
-127.164
-57.3204
85.0648
-186.275
-90.0973
-46.598
-5.19907
-648.478
-212.209
-87.9159
152.727
-376.187
-158.208
-72.6012
-3.64392
-986.381
-305.907
-110.181
233.044
-654.984
-233.663
-96.666
0.516719
-1299
-368.782
-180.136
191.751
-879.682
-282.238
-131.475
-16.9781
-1732.82
-478.443
-194.467
237.817
-869.274
-263.788
-109.982
8.12098
-1669.84
-467.904
-219.106
194.937
-961.94
-292.921
-127.249
-8.61655
-1713.15
-442.3
-149.756
308.957
-780.233
-214.415
-69.7642
44.8825
-1630.16
-383.895
-100.301
348.811
-694.371
-155.962
-27.973
75.4538
-3.02536
-6.58731
-4.60262
-2.877
-2.05554
-18.4882
-13.4565
-8.13067
-4.89513
-3.46072
-5.29983
-15.1825
-10.6608
-6.6563
-4.75214
-40.3777
-30.0484
-18.1976
-10.9442
-7.73087
0.0212279
-18.2442
-13.1263
-8.2166
-5.86734
-53.5751
-39.9531
-24.0929
-14.4561
-10.2027
-26.458
-20.217
-12.248
-7.34881
-5.18369
-2.01489
-8.30695
-5.94649
-3.71842
-2.65179
-9.59677
-20.4375
-13.842
-8.54115
-6.07491
5.44739
-6.62636
-5.12067
-3.2395
-2.3196
-30.9932
-28.7446
-17.7266
-10.6914
-7.55826
0.938275
-7.74053
-5.47995
-3.41036
-2.43097
11.2855
-9.37352
-7.70662
-4.93743
-3.54396
7.88248
-5.31027
-4.33888
-2.76487
-1.98148
33.2595
0.214476
-2.79031
-2.12745
-1.58619
21.8968
0.987641
-1.04202
-0.865206
-0.654126
1.37409
-4.4366
-3.32476
-2.10512
-1.50913
-3.4892
-4.52352
-2.92737
-1.79483
-1.27641
-2.93778
-12.9451
-8.92207
-5.53393
-3.94284
-13.2075
-13.0978
-8.11607
-4.91344
-3.47907
11.6132
-13.5854
-10.2985
-6.4961
-4.64548
-22.7856
-19.3377
-11.636
-6.9868
-4.93292
-28.6198
-23.8145
-14.247
-8.53896
-6.02933
-27.3711
-16.5762
-9.42892
-5.58276
-3.92693
-21.1752
-14.0882
-8.13515
-4.84078
-3.41217
-43.9049
-199.999
-55.8542
-505.798
40.5627
-689.557
373.204
-597.279
668.747
-1.42293
-733.983
-1263.89
233.661
39.7696
-1174.45
-1869.22
-1489.27
-2136.67
-636.532
-151.2
-34.3965
-7.64696
-1.92904
-165.099
-92.0014
-12.818
-3.55587
-1.60644
-1966.4
-463.139
-105.625
-23.3562
-5.89878
-394.305
-121.542
-31.3747
-6.79375
-1.88283
-3310.97
-779.295
-178.105
-39.5112
-9.95758
-684.563
-216.256
-54.4667
-12.9299
-3.30128
-4455.12
-1048.02
-240.283
-53.4556
-13.4887
-860.356
-282.327
-72.2229
-17.1784
-4.3538
-5598.58
-1323.95
-305.159
-68.1899
-17.2759
-1028.42
-354.978
-92.0729
-22.0173
-5.62239
-6685.55
-1623.55
-378.737
-85.2809
-21.6958
-1644.55
-504.982
-125.174
-28.8763
-7.27039
-6211.53
-1503.34
-349.271
-78.3379
-19.8698
-1280.39
-425.497
-108.597
-25.5599
-6.44865
-6907.6
-1680.48
-392.804
-88.5929
-22.5736
-1861.66
-554.465
-135.566
-30.8567
-7.75144
-7214.91
-1741.25
-407.7
-91.9291
-23.4134
-1932.71
-577.799
-142.582
-30.178
-8.01908
-510.697
-7056.51
-6216.81
-2206.55
-1585.53
-915.5
-3717.93
-2664.42
-6559.25
-6121.41
-3134.94
-2349.08
-337.167
-522.194
-905.378
-1484.69
-2248.32
-3135.01
-245.215
-532.835
-1116.52
-1960.88
-2983.71
-4050.12
-255.288
-117.609
-442.7
-301.953
-822.61
-679.712
-1386.62
-1282.36
-2014.58
-1928.55
-2674.55
-2400.04
-3932.3
-4495.6
-4949.21
-7481.22
-8463.79
-9378.16
-4968.11
-5521.74
-5548.06
-5110.78
-4418.98
-3895.31
-304.397
-257.667
-195.533
-121.986
-41.4466
-471.076
-398.393
-302.05
-188.307
-63.9569
-815.988
-689.347
-522.11
-325.258
-110.43
-1336.36
-1127.31
-852.689
-530.716
-180.11
-2019.68
-1700.07
-1283.55
-797.978
-270.693
-2807.02
-2354.9
-1773.3
-1101.01
-373.402
-221.286
-187.216
-141.996
-88.5512
-30.0803
-480.398
-406.005
-307.626
-191.695
-65.0923
-1005.71
-849.089
-642.74
-400.261
-135.872
-1763.87
-1486.97
-1124.15
-699.478
-237.364
-2678.43
-2253.08
-1700.33
-1056.95
-358.558
-3624.61
-3039.66
-2288.72
-1421.28
-482.135
-230.534
-195.205
-148.178
-92.4635
-31.4195
-106.214
-89.9447
-68.2815
-42.6102
-14.4795
-399.522
-338.035
-256.401
-159.899
-54.3168
-272.565
-230.678
-175.014
-109.164
-37.0856
-741.793
-627.049
-475.19
-296.142
-100.562
-613.117
-518.451
-393.012
-244.978
-83.1964
-1248.85
-1054.18
-797.802
-496.711
-168.589
-1155.19
-975.305
-738.2
-459.616
-155.996
-1810.91
-1525.29
-1152.05
-716.293
-242.967
-1733.81
-1460.41
-1102.9
-685.551
-232.486
-2395.58
-2010
-1513.2
-938.985
-318.28
-2149.83
-1803.36
-1356.69
-841.051
-284.86
-3501.82
-2922.68
-2193.33
-1360.56
-461.817
-3965.63
-3282.87
-2453.22
-1523.15
-519.281
-4290.86
-3505.61
-2607.79
-1629.36
-563.898
-6274.21
-5021.57
-3731.84
-2386.06
-867.932
-6698.39
-5205.41
-3887.8
-2603.7
-1056.36
-7102.13
-5410.28
-4059.85
-2815.01
-1232.63
-4426.17
-3696.19
-2775.49
-1722.52
-584.769
-4886.55
-4056.99
-3037.24
-1885.97
-641.978
-4859.02
-4001.29
-2986.37
-1860.2
-637.807
-4396.8
-3576.17
-2662.64
-1674.38
-585.337
-3671.87
-2924.42
-2176.52
-1401.88
-515.545
-3117.15
-2428.95
-1809.09
-1197.71
-465.866
-353.613
-573.594
-997.525
-1626.3
-2450.93
-3392.61
-267.814
-603.456
-1241.97
-2146.61
-3223.54
-4314.26
-270.636
-130.315
-491.375
-343.527
-912.148
-760.529
-1529.69
-1419.14
-2233.36
-2179.17
-2969.32
-2791.25
-4211.25
-4765.52
-5204.98
-7648.91
-8542.04
-9402.35
-5204.82
-5677.59
-5598.27
-5068.58
-4341.21
-3858.08
-319.34
-270.418
-205.291
-128.116
-43.5375
-517.809
-438.302
-332.62
-207.525
-70.5144
-899.889
-761.12
-577.186
-359.934
-122.272
-1465.61
-1238.19
-938.033
-584.582
-198.532
-2205.22
-1859.9
-1407.1
-876.229
-297.508
-3044.35
-2560.84
-1933.67
-1203.21
-408.546
-241.813
-204.725
-155.392
-96.9639
-32.9492
-544.6
-460.824
-349.608
-218.084
-74.096
-1119.94
-946.813
-717.733
-447.478
-151.998
-1933.4
-1632.44
-1236.14
-770.177
-261.545
-2898.15
-2442.46
-1846.79
-1149.77
-390.376
-3868.06
-3251
-2453.38
-1526.27
-518.255
-244.472
-207.087
-157.263
-98.1663
-33.3638
-117.743
-99.765
-75.7829
-47.3153
-16.0828
-443.749
-375.774
-285.282
-178.042
-60.5052
-310.319
-262.87
-199.632
-124.619
-42.3553
-823.27
-696.699
-528.596
-329.744
-112.034
-686.642
-581.286
-441.178
-275.277
-93.5386
-1379.4
-1166.15
-883.954
-551.072
-187.177
-1280.12
-1082.59
-820.851
-511.821
-173.856
-2011.14
-1697.67
-1285.19
-800.568
-271.835
-1963.22
-1657.93
-1255.5
-782.164
-265.583
-2667.07
-2245.47
-1696.46
-1055.7
-358.397
-2509.27
-2114.2
-1597.91
-994.314
-337.471
-3761.61
-3150.91
-2373.29
-1476.43
-501.915
-4221.85
-3512.66
-2638.1
-1644.22
-561.661
-4541.33
-3737.17
-2799.49
-1758.08
-609.882
-6460.17
-5210.95
-3902.45
-2509.8
-915.71
-6805.75
-5325.29
-4004.64
-2696.4
-1097.05
-7140.88
-5455.26
-4105.34
-2852.82
-1250.19
-4646.78
-3890.18
-2928.63
-1821.23
-618.952
-5035.74
-4192.08
-3146.98
-1958.39
-667.442
-4913.79
-4057.17
-3036.65
-1896.09
-651.088
-4368.48
-3561.54
-2659.4
-1677.31
-587.802
-3610.04
-2879.13
-2148.36
-1388.92
-512.978
-3086.99
-2406.04
-1794.12
-1190.34
-464.243
-19934.2
-14444.1
-4895.18
-3849.83
-2945.43
-4083.41
-3815.87
-13021.1
-14544.8
-11482
-13239.6
-7724.07
-11132.9
-5873.26
-6145.12
-4459.04
-20528.9
-11209.1
-4235.39
-6929.33
-9146.78
-6250.83
-6843.77
-5168.29
-3166.33
-4538.37
-5123.19
-5239.02
-19534.5
-12996.6
-12789.4
-9110.53
-9042.1
-9630.44
-4453.53
-5586.84
-7046.03
-14087.4
-12068.4
-9993.61
-9053.15
-7571.11
-9381.48
-6406.37
-4905.52
-3682.1
-1841.63
-4333.82
-3604.02
-2706.64
-1687.91
-577.219
-3444.57
-2889.68
-2178.36
-1355.18
-460.489
-2632.86
-2205.55
-1659.6
-1030.53
-349.686
-3662.89
-3079.33
-2323.37
-1444.55
-490.222
-3403.72
-2846.51
-2140.73
-1330.3
-451.995
-9444.14
-7770.27
-6310.4
-5559.47
-5325.85
-10730
-9158.74
-7323.46
-5752.98
-3334.52
-8238.06
-5767.86
-4301.18
-2952.15
-1254.85
-9759.84
-7985.92
-6194.45
-4482.65
-2127.69
-6509.35
-5198.74
-3816.29
-2371.54
-822.533
-8704.65
-6468.67
-4694.44
-2956.17
-1071.85
-5073.39
-4124.85
-3049.21
-1888.4
-646.371
-5287.26
-4284.89
-3161.68
-1957.78
-670.835
-3886.45
-3181.44
-2358.34
-1458.22
-496.602
-14322.7
-11331.9
-9275.52
-8006.57
-7087.34
-8672.85
-6603.82
-4971.17
-3367.84
-1450.2
-3649.18
-2966.12
-2199.17
-1371.29
-475.066
-5990.78
-4893.58
-3652.1
-2297.14
-805.577
-7678.05
-6173.95
-4624.47
-2990.25
-1119.57
-5382.55
-4389.13
-3282.95
-2078.72
-735.682
-5968.76
-4912.79
-3684.06
-2318.75
-807.948
-4541.22
-3752.31
-2808.89
-1753.44
-602.412
-2791.57
-2308.36
-1721.91
-1066.35
-362.515
-4033.95
-3361.96
-2522.02
-1565.63
-532.135
-4475.59
-3674.61
-2733.55
-1697.01
-580.729
-4602.65
-3800.27
-2840.27
-1768.92
-606.402
-13637.6
-11300.3
-9392.02
-8246.46
-7022.04
-9110.47
-6560.31
-5026.03
-3666.59
-1813.71
-9783.93
-7909.88
-6104.65
-4461.72
-2104.88
-7263.42
-5587.86
-4225.52
-2857.55
-1143.09
-7618.12
-6149.78
-4620.89
-2997.22
-1118.35
-7675.28
-5895.44
-4454.55
-3005.55
-1190.66
-3881.73
-3191.33
-2389.55
-1501.38
-522.226
-4954.3
-4122.28
-3092.39
-1923.08
-655.165
-6126.72
-5025.25
-3757.45
-2360.41
-821.068
-457.27
-1310.67
-2101.31
-2860.67
-3589.32
-4274.19
-2717.87
-7289.63
-6892.25
-2647.6
-9242.4
-7761.8
-9191.52
-10158.1
-2471.41
-1593.25
-5742.39
-3292.87
-10860.8
-7744.24
278.204
-2199.64
-6060.19
-5644.58
-2125.18
-7839.32
-6300.7
-7680.97
-8620.66
-2044.46
-931.144
-4936.93
-1693.06
-8953.97
-4621.35
1674.04
-1598.81
-4584.78
-4251.15
-1546.95
-6160.08
-3735.34
-6189.55
-6817.84
-1535.83
-849.311
-3480.96
-1769.64
-7099.34
-1776.23
1817.17
-1168.35
-3524.49
-3329.09
-1170.32
-4677.9
-2229.57
-5102.53
-5967.91
-1149.02
-896.026
-2536.83
-1797.66
-6208.78
-311.295
1367.79
-937.436
-2970.26
-2848.02
-979.446
-3727.89
-1831.94
-4548.07
-5768.31
-903.402
-980.783
-1809.28
-1733.26
-5396.61
-99.5339
174.432
-823.643
-2635.19
-2603.33
-882.707
-3436.81
-2107.64
-4194.32
-5504.08
-692.534
-769.694
-1479.98
-1693.47
-5313.4
-951.679
-483.625
-1396.19
-3407.41
-5045.52
-1954.13
-5514.37
-9661.17
-7377.32
-10618.4
-998.546
-691.964
-3866.77
-2343.97
-1105
-9182.5
-4765.05
-1297.66
-3173.62
-4426.26
-1695.36
-5091.76
-8722.78
-6648.38
-9022.65
-1019.87
-607.256
-3997.91
-2207.38
-285.2
-8999.55
-3553.38
-1138.82
-2794.88
-3616.05
-1358.21
-4628.42
-7776.63
-5643.61
-7912.94
-902.183
-696.832
-3406.56
-2292.24
-515.559
-7241.46
-3380.68
-981.944
-2514.51
-2990.17
-1099.03
-4309.8
-7036.79
-5009.68
-7163.83
-824.967
-699.682
-3138.52
-2370.12
-343.544
-6693.24
-3386.94
-885.596
-2259.12
-2648
-958.489
-3904.59
-6440.13
-4559.81
-6794.73
-770.55
-753.727
-2843.48
-2560.3
-501.83
-6404.46
-3441.22
-821.409
-2014.61
-2451.29
-880.171
-3600.86
-6352.18
-4227.97
-6564.14
-799.914
-877.733
-2531.26
-2438.09
-762.328
-6548.55
-3813.46
6237.66
7876.32
16296.1
23848.4
24289.1
41840.5
18620.6
47402.8
15158.8
33284.8
22698.2
34474.1
20323.4
26745.3
7683.54
8720.22
15374
17611.8
19798.5
19636.3
15556.6
19193.4
22904.5
20531.5
5164.46
3938.16
6333.14
4291.53
12994.6
10406.7
22199.9
16113.6
17119.2
17847.2
19076.2
18297.9
6767.82
5239.99
40490.9
54197.2
26169
32120.6
54340.8
70525
28103.3
32179.2
30074.6
42471.1
26266.2
34794.5
15418.4
24801.2
2813.68
966.817
2882.25
1052.78
8967.21
3625.63
12313.4
4540.38
8798.24
3366.46
9284.89
2981.26
15813.8
5038.58
20393.2
6890.3
24754.2
12335.5
22660.9
13426.1
23123.9
14963.4
20343.5
15251.3
17892.3
10641.3
17919.7
9174.5
23386.8
14909.9
23442.6
15036.4
21496.2
16119.2
21757.1
16177.1
19317.1
12254.3
20004.9
12546.3
18317.9
7970.33
8501.57
10406.4
18392.2
8728.98
7451.66
10595.2
19392.6
7919.42
9610.76
10453.8
20352.6
8104.55
10439.9
10903.9
3630.63
3927.72
1252.14
2427.72
11223.8
11887.5
4366.45
7838.82
14436.9
16001.5
7057.73
12045.9
12305.5
898.679
13846.1
17260.5
9475.09
551.392
7338.19
12539.3
20301.8
14409.7
10206.3
12475
11014.9
9596.75
15101.5
3356.7
2716.94
1904.34
1910.01
10368.5
8665.82
6356.66
6011.8
12862.1
10751.4
8220.67
7349.94
5787.89
7418.36
12031
12522.3
14342
13028.2
16191.7
14016.7
11168.2
9408.43
9180.45
9539.97
12155.2
9403.51
11143.9
7934.15
9710.65
6548.46
11462.6
7450.72
10361.2
4607.37
8945.75
9571.59
12700.7
16422.4
13991.1
20273.8
7154.12
7828.21
9204.17
2674.87
7991.59
15296.5
7592.15
16442.1
13862.6
25056.1
14108.6
26639.4
6088.06
13215.1
5552
14124.7
8444.09
6269.29
11823.8
4591.03
8610.32
1434.34
10265
519.33
8142.46
9503.56
12400.1
5686.75
6758.27
11241.9
10995.6
7487.42
2097.99
1848.75
1651.47
1555.54
1425.94
1271.83
6998.66
5629.46
4790.92
4554.22
3580.21
3049.14
8437.63
7162.07
6563.09
5426.73
4334.23
4053.77
6435.14
5580.74
5402.57
10845.5
8053.27
6698.65
10349.9
7466.83
5958.84
10836.4
8382.5
7208.98
6920.05
4455.64
3419.44
15595.8
13243
11296.8
10139.8
8269.05
6726.1
9140.04
6938.76
5401.59
7784.38
5486.46
4095.74
8186.22
4476.06
2444.96
10524.2
14234.2
8348.74
10767.7
11444.6
16771.1
10248.9
14870.9
63.8085
620.679
-434.922
59.4498
2967.07
3404.06
1240.48
743.732
674.846
2376.7
9466.52
13781.5
6643.81
3700.35
10074.1
10007.4
15629.9
17224.4
-623.505
-4219.44
7642.77
7200.35
7281.7
5613.73
888.003
486.436
572.945
244.116
2013.23
169.569
-297.507
-844.398
9235.04
2327.57
6289.85
1610.07
9124.24
2762.5
11047.5
3522.46
8943.66
11989.3
8254.67
11679.7
14494.3
15257.7
13814.8
14426.2
5632.74
9335.19
6516.27
9283.27
8756.78
11241.8
9655.8
11345.1
14391
14156.3
15063.2
14202.6
5684.81
9023.79
6183.65
9178.34
-255.069
1197.43
7228.32
4366.26
-806.918
789.687
6696.07
3848.32
207.576
1464.82
7384.63
4765.37
653.992
1730.57
7410.21
4924.07
-675.521
-768.803
137.616
-15.2443
-2943.67
-2961.12
-259.154
-434.976
-685.645
-2052.98
1552.86
875.159
-10260.8
-9701.76
-5582.43
-4327.61
-544.027
-10603.2
-10780.9
-4299.67
-6370
-954.142
10419.2
8088.52
7062.72
6517.89
3808.7
-772.076
-693.36
-78.4306
2.22081
-2534.02
-2426.6
-175.293
36.2998
-2589.36
-3041.05
541.666
800.149
-5121.52
-2235.45
-8069.72
-4951.72
-3605.81
-2676.2
-4092.32
-3482.93
262.536
1117.24
3824.65
2405.37
1057.13
-974.22
944.197
-766.51
1544.55
246.987
1819.97
2052.79
5182.56
4704.96
9870.24
5929.79
8160.98
8149.41
12378.3
9990.34
7653.32
4447.6
3779.59
3721.33
11644.6
5113.19
12806.7
5734.64
13807.3
10198.1
14733.4
10946.1
9311.09
3603.07
10433
4184.53
5867.82
4551.76
4321.45
6377.96
3741.36
4167.45
3671.56
5909.42
6797.29
4476.98
4893.15
7331.24
8311.44
4864.31
6219.09
7563.62
-683.045
-697.806
-775.85
-59.8696
-260.288
-284.034
-2580.82
-2694.73
-2674.47
-220.669
-742.921
-741.825
-3318.69
-3616.65
-3673.85
462.789
-739.557
-982.818
-1146.05
-966.176
-663.244
-3528.12
-3564.12
-3296.99
-2873.76
-3192.9
-3117.82
-3563.69
-3747.04
-3622.51
1133.59
-338.174
-442.255
3502.93
2009.72
1089.48
-883.245
-1910.42
-2456.23
-884.342
-2171.94
-2728.12
-421.922
-1796.34
-2186.66
2014.6
-463.121
-751.929
-25.5176
-31.4343
-37.4215
-55.5182
-238.046
-128.265
-103.135
-94.7745
-19.7164
-69.1231
-157.058
-232.717
-412.412
-251.246
-278.127
-284.109
193.938
-25.0976
-226.133
-417.746
-159.153
-202.117
-249.772
-273.322
-34.9099
-119.173
-113.357
-107.726
200.468
10.5001
-100.996
-166.089
869.11
183.328
-63.9041
-235.162
1351.1
317.113
24.7586
-415.118
590.674
76.1345
-143.699
-364.566
1104.21
239.807
40.7815
-358.464
932.143
219.414