/*--------------------------------*- C++ -*----------------------------------*\
  =========                 |
  \\      /  F ield         | OpenFOAM: The Open Source CFD Toolbox
   \\    /   O peration     | Website:  https://openfoam.org
    \\  /    A nd           | Version:  11
     \\/     M anipulation  |
\*---------------------------------------------------------------------------*/
FoamFile
{
    format      ascii;
    class       volScalarField;
    location    "1.7";
    object      gradTy;
}
// * * * * * * * * * * * * * * * * * * * * * * * * * * * * * * * * * * * * * //

dimensions      [0 -1 0 1 0 0 0];

internalField   nonuniform List<scalar> 
5712
(
12034.4
6941.05
19480.9
12790.6
21277.6
15769.6
33338.4
41429.4
43867.4
53788.4
28398.6
24706.8
18031.1
14315.2
9062.26
6133.32
20106.8
20464.4
17364.8
20343.1
27162.4
24136
31444.5
25332.5
8465.19
6064.05
4767.52
3548.83
10100.7
8209.78
6151.33
4988.79
18535.1
19159.9
18854.6
15779.1
14580.2
11479
11509.7
13095.8
18531.4
18470
39019.5
40368.4
27542.8
28409.6
15843.8
13360.6
17187.2
12239.2
7994.85
8228.75
6611.07
9414.3
3463.57
4220.81
9050.68
12587.9
5405.26
6356.18
9983.52
17038.6
6937.85
11464
2638.19
6799.42
2195.16
5065.58
17993.1
22262
18654
22222.1
21978.8
22159.3
22472.1
21931
15931.1
21632.4
16299.2
21332
18413.4
22100.4
18428.6
22066.2
22710.8
21684.1
22661.1
21495.3
14745.8
21741
14249.9
21829.1
18157.5
21467.8
22924.4
32210.4
19240.1
24873.5
22728.9
35090.5
17211.8
18858.4
23006.4
30914.8
17030.7
17629.4
23252.3
30658.7
5590.99
7363.57
14302.3
25161.4
6900.41
7888.61
18342.5
28492.2
8539.69
8641.07
23149.8
31606.6
24826.2
26436.4
21216.5
20698.5
30428.4
26555.4
25247
21619.1
18899
34909.4
24230.8
24071
21628.2
21774.4
39705.1
2138.33
2575.21
4614.29
10681.9
3025.12
3446.5
6328.56
11886.9
4481.35
3802.4
8554.12
13519.5
26161.2
25622.3
23730.3
23126.7
20565.7
18628.6
15672.5
13767.9
11197.7
15744.8
23885.6
22886.1
24226.5
23668.3
21227.5
19766.3
17736.4
15831.8
11907.8
15821.7
24089.1
27071.2
24049
27782.3
23155.3
23893.8
22636.4
24116.6
22057.6
22415.8
21868.7
21746.7
23872.8
27916.5
23777.1
27906
21993.2
24441.3
21825
24400.2
22143.4
22365
22145.7
22358.3
18675.7
17746.5
12078.5
13479
18557.7
17293.7
11906.2
13574.3
18927
17684.1
12336.1
13513.5
19003.4
17502.9
12718
13513.6
1718.02
1140.34
780.558
983.032
659.898
612.924
2398.33
1394.55
1040.38
1926.58
1525.55
1297.95
2749.12
2222.88
2202.63
3375.87
2717.28
2418.18
24172.1
21506.6
19688.7
22368.1
20453
18979.6
16124.6
14756.3
13999.6
11069
9424.88
8718.14
5158.68
3724.43
3119.48
21935
19989.9
18410.9
22674.1
20331.4
18572
16913.7
14266.4
12779.5
11110.4
8706.4
7720.23
5477.08
3698.42
2930.67
27457.6
26788
29975.9
26822.3
30858.6
26823.6
37351.3
28319.2
21214.1
21456.7
20976
19416.8
23808.9
22346.6
23421.2
19963.4
23193.7
22963.6
21341
22757.3
28306.8
25505.3
28301.9
28766.9
30809.7
31900.1
23546.2
24460.4
21073.8
20470.5
25583.2
26271.4
16557
8967.26
15515.7
9920.55
16810.2
9049.55
15485.2
9862.44
16586.4
9095.21
15449.9
10276.3
15046.2
10749.7
15238.7
10661.4
21351
18181.8
21291.5
18193.8
23619.6
21272
23925.2
21104.8
20820
15155.2
21654.2
14925.3
21806.1
18130.3
22102.7
17933.3
24588.7
20958.9
24629
20702.2
20657.5
15218.3
20616.7
15129.4
13642.3
9135.23
11993.1
7773.01
12682.6
8187.83
11506.5
7268.46
13998
9703.93
12198.3
8009.59
14026.5
10048.1
12171.4
8068.08
2606.77
1367.39
4807.6
2630.54
2780.73
1674.02
5121.14
3138.06
3417.91
2519.85
5667.22
4086.83
13127.5
20373.2
9472.12
9097.76
6543.15
19904.1
13826.7
8107.82
8159.65
5399.58
20764.8
16308.8
12949.5
10089.1
6382.81
736.542
551.053
1543.9
1153.1
1034.68
711.383
2144.99
1712.04
1784.62
1365.09
3081.74
2511.12
20125.4
19324.8
13593.4
12905.5
8820.09
8785.31
7430.55
6733.81
4621.01
3784.15
18927.2
17084
14624.4
12719
11360.8
9973.13
8650.52
7705.63
5629.94
5477.59
15035.7
12048.1
15153.8
11791.7
18141.5
14961.9
18136
14799
12647
10143.4
12253.9
10154.4
15175
11628.6
15087.3
11615.8
18085.4
15105.9
17920.9
15070.6
12885.9
10000.5
12866.6
10133.8
9851.49
8232.5
6619.36
6848.62
9483.18
8037.44
6318.19
6481.64
10274
8400.6
6789.41
7243.48
10515.2
8399.82
7051.6
7347.31
1655.33
1448.92
1196.71
7096.34
3798.93
3101.72
1614.37
1582.59
1401.34
7734.01
4513.26
3819.03
2228.36
2481.93
2535.23
8607.46
5683.08
5047.86
17963.5
16559.6
15586.5
12211
11668
11337.2
8852.02
8616.77
8544.86
7527.12
7188.08
6965.84
9864.84
7053.43
6347.68
15364.1
13931.7
12989.1
11357
10389.4
9846.04
9371.45
8553.89
8102.13
8925.81
7814.82
7180.48
12032.9
7970.9
7117.39
4972.25
3100.69
2127.61
1662.23
5586.56
3362.78
2242.62
1703.83
4999.05
3099.07
2132.86
1673.64
5708.1
3432.53
2290.53
1729.45
4989.64
3069.8
2145.9
1677.56
5825.49
3477.72
2350.55
1745.63
6266.58
3679.6
2391.17
1794.74
6451.64
3820.45
2460.64
1854.94
5317.2
3267.14
2235.25
1704.9
4375.06
2878.22
2055.83
1635.73
4676.19
2965.18
2091.54
1597.98
4035.65
2716.06
1975.5
1573.5
5748.4
3495.78
2334.71
1773.38
4579.31
2997
2106.62
1684.03
5992.11
3651.89
2407.55
1826.97
4670.34
3082.55
2151.25
1716.34
3770
2669.22
1944.02
1579.64
2479.94
2155.37
1720.45
1485.51
3783.16
2658.09
1942.48
1576.84
2588.87
2185.33
1731.15
1493.78
3877.45
2659.25
1957.22
1588.7
2916.47
2282.16
1770.3
1529.7
3838.45
2599.11
1926.6
1621.72
3200.26
2351.04
1822.2
1525.97
3583.02
2527.65
1885.13
1550.73
1195.81
1740.58
1377.51
418.268
-220.616
1511.49
1240.75
437.666
1428.46
1817.98
1409.22
441.06
62.3304
1597.22
1267.86
446.982
1867.38
1955.49
1455.8
439.682
546.309
1742.62
1306.93
452.002
2408.88
2120.52
1527.54
477.072
1069.49
1905.52
1364.52
471.363
2774.86
2273.49
1617.11
553.663
1229.49
2031.5
1418.43
488.373
2966.14
2444.76
1656.36
528.328
968.918
2171.38
1519.8
518.644
2890.57
2369.02
1626.78
528.247
921.498
2106.61
1468.25
500.723
2994.01
2498.5
1676.97
493.848
922.884
2226.61
1552.97
521.737
3056.73
2554.32
1720.08
503.893
1024.94
2285.39
1593.44
534.208
1415.58
1029.08
679.772
383.186
123.439
1400.93
1027.12
680.333
383.729
123.622
1433.39
1037.89
683.929
385.066
123.981
1423.87
1038.41
685.878
386.289
124.367
1468.65
1050.43
689.305
387.437
124.663
1453.12
1051.76
692.369
389.293
125.243
1473.86
1066.84
700.883
393.462
126.482
1508.53
1088.4
712.949
399.389
128.248
1504.28
1065.44
696.987
391.076
125.732
1604.53
1083.6
702.08
392.928
126.234
1511.5
1061.52
693.3
389.077
125.124
1602.24
1077.01
697.995
390.896
125.626
1517.81
1078.71
704.614
394.833
126.852
1634.04
1096.45
709
396.306
127.239
1552.94
1099.66
715.957
400.349
128.491
1671.29
1115.14
718.809
401.057
128.651
1453.84
1034.22
679.708
382.748
123.277
1527.24
1040.06
679.853
382.497
123.18
1470.7
1041.19
682.822
384.127
123.672
1540.71
1045.33
682.239
383.558
123.484
1505.4
1052.88
687.716
386.281
124.29
1570.47
1054.96
686.482
385.461
124.032
1560.83
1066.2
692.646
388.385
124.89
1606.14
1065.31
691.3
387.665
124.671
1613.14
1073.04
695.421
389.618
125.244
10568.6
16315.6
11031.1
16564.2
11696.2
16861.7
12103.1
16993.3
11522.1
16223
10557.6
11914.6
10608.5
12561.1
10595.6
11775.5
10770.4
11902
9392.83
1610.53
344.676
77.4374
13.731
10457.4
2979.61
724.414
164.606
29.1751
9458.74
1593.38
338.658
75.815
13.4091
10512.3
2958.69
716.835
162.149
28.4983
9492.66
1578.15
332.768
74.2035
13.0997
10524.4
2932.57
707.038
159.403
27.9809
9340.85
1520.38
317.88
70.7347
12.4827
10334.6
2854.55
686.039
154.466
27.0934
8792.09
1395
291.149
65.0088
11.5014
9724.98
2691.88
649.26
146.644
25.765
7726.06
1274.76
274.822
62.394
11.1278
7912.77
2300.36
569.948
130.939
23.2362
8046.11
1306.38
278.315
62.7823
11.1592
8442.99
2449.97
601.548
137.069
24.1904
7594.53
1265.02
273.957
62.3443
11.13
7722.02
2230.74
553.126
127.479
22.6877
7553.8
1252.99
271.099
61.7128
11.0075
7714.77
2211.92
546.937
126.333
22.4468
34306
48791.1
47644.6
33260.1
19514
20552.8
28787.5
30114.1
22594
25361.9
35987.1
49200.1
45531.7
60412.2
29704.7
33899.7
23274.3
24893.4
12622.8
13851.4
4866.91
3172.93
750.868
561.212
634.846
550.084
685.566
4697.41
4570.45
2725.84
3801.69
3599.9
1530.49
2152.02
1923.95
1246.08
1444.31
1169.65
4250.33
2230.9
1370.13
1205.86
1566.68
1348.57
1037.51
969.644
896.645
780.309
1089.38
978.312
4478.46
2665.72
3073.09
1908.98
1546.27
2224.11
1057.2
807.136
1169.8
9805.02
9724.06
9745.08
10733.4
17250.1
6963.49
7859.93
8457.59
9353.94
10774.9
1966.91
2792.48
3410.03
3825.22
4038.29
1483.02
2132.11
2629.49
2965.44
3135.44
1675.55
2403.32
2955.54
3324.1
3508.61
1455.52
2096.12
2587.69
2918.76
3085.36
1804.18
2577.34
3160.07
3549.27
3745.4
9790.89
9931.77
9644.63
10047
15367.6
9504.31
9473.56
9036.66
9106.64
10272.6
6212.88
7260.91
7727.25
8156.17
8729.29
8144.24
8430.06
8098.56
7941.13
8079.49
7710.31
8058.23
7726.64
7454.82
7408.58
3791.31
4962.45
5670.58
6104.84
6344.1
5078.23
6207.61
6750.1
7080.32
7322.07
4603.17
5725.23
6269.48
6543.45
6683.69
3159.13
4269.96
4993.99
5437.82
5660.45
3595.7
4733.36
5416.16
5810.2
6003.76
2984.99
4070.46
4789.12
5226.86
5439.86
9030.18
9471.03
9468.93
10119.7
15667.7
5260.64
6469.7
7167.16
7759.59
8381.02
3446.52
4613.65
5373.34
5864.91
6141.04
3069.02
4180.62
4941.74
5446.58
5726.26
3877.23
5087.17
5867.7
6418.53
6792.47
3401.26
4581.51
5387.57
5949.5
6289.9
2670.86
3702.2
4445.09
4952.55
5231.05
2511.83
3507.8
4225.24
4701.21
4948.89
2335.33
3282.57
3964.33
4403.46
4620.72
2044.67
2901.04
3533.81
3949.55
4157.14
2798.29
3856.22
4585.66
5050.89
5287.59
2532.23
3530.18
4241.55
4706
4943.85
9248.99
9453.5
9528.05
10423.7
16537
6043.12
7117.04
7818.5
8644.12
9739.62
7076.44
8172
8648.28
9457
11362.1
4614.69
5896.42
6747.9
7463.26
8072.73
3844.36
5086.5
5927.34
6553.64
6982.44
5252.7
6494.06
7254.98
7943.46
8669.92
2720.11
3765.29
4511.27
5014.54
5287.5
2109.71
2983.99
3629.01
4056.54
4273.52
2985.9
4086.37
4852.85
5369.44
5657.43
18979.8
12625.1
19535.6
13979.9
25263
36256.7
26435.4
36105.2
20058.7
21170.7
17238.4
20490.9
22703.1
21520
29034
23697
14688.7
13814.2
7196.84
6175.3
15991.6
14688.4
8257.62
6768.06
19803.9
21370.7
20242.8
18421
20699.8
13628.2
11344.5
13074.9
18499.6
18458.9
38561
40287.3
26848.3
28227.3
16498.6
13504
17954.2
12380.5
8716.47
8405.16
14609.7
16222
6106.16
6680.67
16048.8
18384.6
7604.68
8422.03
15261
21443
8853.43
13710.3
3085.24
7574.38
2285.31
5216.94
18618.5
21243.6
18565.6
21632.6
20198
20442.8
21326.5
20978.2
17036.4
21536.9
19339.9
21236.6
18258.3
21785.9
18364
21964.3
22126.8
21200.6
22490.6
21346.2
15086
21664.5
14308.4
21796.8
19125.8
22752.2
23197.8
32526.5
20857.2
26998.9
23294.2
35733.7
17655.6
19481.7
23114
31055.4
17145.6
17803.1
23274
30695.6
20053.1
21644.8
25261.5
37565.6
20137.7
20579.1
27017.9
38028.2
19785.2
19411.6
29036.8
37663.3
18812.4
19566.5
20257.9
21733.1
32975.7
18780.4
17654.9
21596.3
19824.4
37760.3
19594.7
20571.2
20562.3
22505.8
40754.8
11834.9
10780.5
11091.9
14446.4
12960.5
11825.8
11484.9
14829.9
14277.7
12321.3
12000.4
15133.3
18140.6
17333.7
17134.1
16573.7
19968.4
18558.3
16582.4
14865.1
12554.5
15770
19193
18859.1
20472
20509.1
19790.6
18551.1
18095
16027.2
12350.7
15226.5
22312
25060.2
23165.8
26711.2
20956.3
21793.4
21592.1
23089
21599.6
21806
21071.5
20768.4
23445.4
27403.4
23647.9
27754.2
21509.3
23947.4
21682.2
24256.7
21896.8
22055.3
22067.9
22266.4
18584.9
17515.9
12137.7
13395.5
18529.4
17043.4
12121.5
13480
18852.1
17546.8
12343.7
13458.6
18974.7
17458.2
12715.4
13493.1
9835.91
9988.8
4261.24
3913.07
10970.7
10598.7
4773.13
4557.47
10677.6
9966.69
5425.24
5223.98
16962.4
16362.8
16689.2
16687.2
16777.4
16186.2
12718.2
11316.9
6410.16
5261.18
19015.5
18134.5
20508
19597.5
16425.7
15126.5
11896
10141
5884.56
4380.2
22484.8
21299.8
27717.2
24108.8
25139.3
22320.8
34611
25977.4
20531.2
16876.6
22440.6
17758.6
20394.8
17157
22535
17995.1
21048.5
18571.8
18977.7
17571.2
21442.3
22827.1
26950.5
28358.9
29693.3
31580.6
22216
23995.7
20011
20167.8
24054.9
25758.2
13740
10167.4
14213.9
10403.3
14022.1
10082.2
14413
10259.6
13920.2
9933.7
14353.9
10461.2
14407.7
10777.9
15028.8
10663.4
17470.9
16890.2
19369.9
17397.5
20095.7
19201.7
22065.6
19960.1
18998.5
14855.7
17986.2
14642.1
20857.1
17708
21821.7
17805.6
23691.5
20385.2
24370.7
20529.6
19754.6
15029.9
20352.7
15070.7
13233.7
9541.77
12191.7
8150.99
12623.7
9241.83
12101.4
8068.48
13682.6
9851.47
12258.4
8185.65
13916.1
10082.7
12186.3
8125
13172.5
13233.8
9544.01
8802.14
13304.9
13345.4
9400.03
8730.19
13246.9
12826.3
9169.98
8632.99
15391.6
18224.8
16154.9
12014.8
8902.82
16884.5
15740.7
17524.9
12012.3
8601.34
18627.8
16428.8
14522.8
12177.1
7991.07
13642.1
14554.1
8689.4
9248.73
13519
14197.5
8618.63
9133.27
12643.2
12941.9
8268
8329.2
16638.1
15659
14956.2
14265.8
15454.2
15710
12030.9
12626.6
8041.42
7811.98
16847.7
15325
15086.6
13634.3
13505.3
12740.4
11419.1
11238.8
7442.38
7777.65
14782.7
12476
14871.4
11932.9
16840.6
14171.5
17386.5
14380
12816.7
10701.1
12888.3
11437.6
14993.1
11684.5
15030.4
11629.8
17710.6
14897.7
17809.3
15010.9
12906.3
10237
12859.6
10192.7
10343.3
9008.94
7107.91
7569.39
10614.2
9671.63
7285.11
7932.94
10468.2
8741.79
7016.13
7624.33
10569.7
8498.14
7127.67
7466.11
17027.6
16931.7
22714.3
19245.4
16396.6
16398.6
21795.6
18409.5
14432.5
14949.8
20027.8
17118.4
15064.5
14473.2
13734.3
13453.1
15727.4
16041.1
14318.3
14188.7
18380.7
15639.5
14182
13403.9
12818.1
12544.9
12901
13121.6
13609.1
13223.3
17861.3
14293.9
6424.85
4052.85
2686.88
2023.45
6658.3
4176.85
2757.35
2042.06
6315.52
3983.25
2643.96
2002.42
6602.1
4136.14
2735.7
2023.68
6116.86
3847.69
2594.84
1965.85
6519.78
4044.15
2723.32
1994.49
6669.98
4035.19
2641.2
1968.91
6586.29
3943.97
2545.23
1915.49
5906.13
3716.02
2540.51
1922.36
4776.36
3201.19
2274.01
1799.76
5607.55
3604.75
2489.89
1865.09
4692.13
3212.35
2267.8
1771.18
6072.39
3763.51
2525.92
1912.62
4795.84
3179.56
2242.86
1794.75
6092.45
3741.44
2473.13
1875.57
4738.59
3142.03
2197.67
1754.33
5940.48
3819.09
2562.25
1967.41
5145.13
3475.04
2396.99
1899.27
5795.82
3746.96
2522.55
1938.58
5046.16
3433.89
2374.25
1889.08
5593.56
3630.27
2479.05
1916.86
4973.44
3379.85
2348.16
1885.16
5160.5
3415.74
2375.16
1909.56
4805.87
3289.93
2313.91
1815.91
4556.79
3199.21
2248.7
1774.09
3987.29
3124.24
2009.56
571.12
2210.92
2901.07
1885.72
620.269
4018.75
3122.04
2011.43
590.946
2354.46
2903.02
1883.46
622.741
4077.34
3101.69
1989.39
565.487
2553.88
2889.28
1859.17
608.865
4032.37
3051.8
1996.54
594.107
2565.39
2845.07
1841.15
609.205
3773.47
2952.54
1997.13
666.714
2084.23
2741.09
1807.49
605.596
3276.29
2733.29
1881.19
608.988
1142.14
2479.32
1725.89
588.495
3454.84
2827.13
1933.82
626.832
1321.06
2592.47
1760.93
593.406
3149.22
2657.07
1812.9
544.412
989.816
2394.18
1673.45
564.143
3101.85
2604.88
1764.94
520.949
1039.34
2337.77
1632.36
548.13
1674.54
1179.54
761.007
422.466
135.08
1637.68
1169.87
758.339
421.598
134.857
1673.29
1175.14
757.946
420.855
134.589
1632.64
1163.05
753.924
419.328
134.171
1687.41
1171.57
754.335
418.854
133.973
1629.35
1155.07
748.66
416.618
133.352
1594.86
1138.51
740.103
412.537
132.147
1552.99
1115.4
727.806
406.63
130.4
1665.7
1158.87
747.318
415.431
132.955
1757.55
1166.75
746.304
414.262
132.556
1716.56
1172.51
752.425
417.594
133.572
1799.51
1176.96
750.746
416.286
133.145
1624.38
1142.77
739.388
411.704
131.859
1733.17
1152.77
739.179
410.906
131.569
1589.82
1121.84
728.063
406.236
130.24
1705.32
1134.74
729.367
406.176
130.17
1747.45
1193.76
764.193
423.369
135.297
1867.34
1206.62
766.43
423.946
135.433
1750.94
1191.08
762.067
422.222
134.946
1868.43
1204.21
764.75
423.062
135.163
1765.92
1187.58
758.686
420.39
134.385
1874.41
1199.55
761.522
421.404
134.661
1804.79
1186.47
755.654
418.646
133.846
1883.49
1192.54
757.479
419.401
134.06
1845.98
1183.86
753.524
417.536
133.508
12330.7
16281.8
12387
16280.8
12507.6
16260.2
12274.6
16034.9
11436.2
15209
10529.1
11804.3
10591.2
12326.7
10573.3
11719.9
10762.3
11885.2
9564.46
1598.33
337.656
75.4017
13.3309
10298.6
2926.66
708.054
160.24
28.3284
9517.41
1570.95
330.618
73.6889
13.0057
10246.3
2888.41
698.137
157.528
27.639
9380.95
1540.45
323.233
71.9483
12.6914
10114.2
2839
685.324
154.473
27.103
9093.48
1473.5
307.895
68.5387
12.0983
9836.73
2748.22
663.105
149.532
26.2423
8547.62
1354.4
282.801
63.1922
11.1853
9280.88
2596.17
628.634
142.24
25.0121
7651.49
1260.09
271.219
61.519
10.9672
7815.71
2266.36
560.787
128.748
22.841
7914.7
1281.21
272.526
61.4483
10.9213
8247.48
2389.06
586.602
133.705
23.604
7555.5
1257.29
271.996
61.8523
11.0378
7675.23
2213.96
548.365
126.291
22.4672
7541.62
1250.57
270.477
61.5546
10.9775
7700.61
2206.91
545.486
125.961
22.3767
33867.7
48528.4
46684.6
31926.4
24855.1
29737.5
24001.6
29612.9
27944.6
44602.6
29667.1
45702
140.706
155.322
187.758
240.82
319.382
429.618
152.803
168.022
201.649
256.124
335.088
443.114
131.632
127.181
146.993
143.983
181.206
181.607
237.685
244.95
320.391
336.814
430.599
449.04
579.482
778.184
1045.63
1411.42
1839.62
2148.65
585.209
765.579
987.294
1242.08
1489.42
1650.55
376.353
551.327
691.829
789.891
840.232
415.237
607.787
762.045
869.492
924.579
501.482
732.924
917.581
1045.76
1111.33
642.29
936.6
1170.02
1331.28
1413.54
849.999
1235.36
1538.43
1746.53
1852.36
1139.57
1647.84
2042.9
2312.2
2448.87
408.572
598.193
750.221
856.191
910.548
448.983
656.701
822.788
938.295
997.458
538.227
785.812
982.838
1119.34
1189.1
682.464
993.749
1239.81
1409.44
1495.9
890.686
1292.1
1606.58
1822.12
1931.73
1173.68
1693.68
2096.37
2370.7
2510.15
352.17
516.104
647.882
739.942
787.231
340.304
498.808
626.288
715.388
761.171
393.083
575.621
722.035
824.122
876.493
385.08
564.004
707.589
807.745
859.138
484.154
707.988
886.823
1011.09
1074.7
485.274
709.733
889.131
1013.82
1077.65
634.21
925.437
1156.77
1316.73
1398.36
653.619
953.796
1192.22
1357.05
1441.14
853.168
1240.98
1546.46
1756.31
1863
896.839
1304.3
1624.99
1845.04
1956.8
1143.21
1655.15
2053.76
2325.36
2462.92
1192.3
1726.31
2141.69
2424.12
2566.84
1528.74
2192.95
2700.68
3044.49
3219.5
2034.73
2882.28
3515.88
3944.73
4167.24
2694.02
3740.46
4500.28
5023.63
5311.67
3549.4
4774.65
5634.1
6263.19
6662.59
4475.73
5773
6655.85
7383.27
7959.55
5116.3
6420.67
7296.29
8090.56
8811.25
1542.13
2208.83
2717.5
3062.41
3238.56
2002.65
2838.72
3465.03
3889.72
4110.03
2556.13
3572.28
4317.3
4827.54
5101.98
3172.7
4354.81
5202.1
5797.77
6139.93
3749.33
5049.49
5963.92
6633.09
7051.64
4116.83
5479.56
6429.46
7146.67
7621.54
142.689
161.466
198.638
257.397
342.96
461.69
154.888
174.44
212.875
272.874
358.113
472.814
133.606
129.209
153.15
150.35
192.265
193.193
254.904
263.381
345.411
363.605
466.293
488.647
620.096
823.973
1090.24
1445.28
1857.6
2153.71
620.774
804.218
1024.34
1271.89
1507.98
1656.72
381.693
559.232
701.855
801.44
852.578
431.784
632.301
793.169
905.37
962.948
530.82
776.477
972.992
1109.74
1179.82
687.085
1003.33
1255.22
1429.93
1519.31
913.931
1331.12
1661.39
1889.54
2006.07
1227
1779.9
2213.84
2512.31
2664.72
414.19
606.522
760.805
868.4
923.61
466.288
682.386
855.46
976.016
1037.83
568.535
830.894
1040.31
1185.82
1260.33
727.782
1061.4
1326.36
1509.83
1603.64
953.191
1385.9
1727.23
1962.64
2082.89
1254.7
1816.18
2255.1
2556.67
2710.86
357.48
523.955
657.827
751.386
799.458
345.756
506.864
636.487
727.118
773.699
409.652
600.139
753.125
859.926
914.763
402.207
589.335
739.693
844.699
898.628
513.953
752.176
942.979
1075.87
1144.01
516.489
756.01
947.924
1081.63
1150.19
680.713
994.656
1245.07
1418.91
1507.87
703.412
1027.94
1286.85
1466.59
1558.56
921.018
1342.64
1677
1908.16
2026.21
969.611
1413.61
1765.71
2009.06
2133.28
1240.55
1802.3
2244.36
2548.58
2703.74
1300.48
1890.25
2354.58
2673.96
2836.68
1640.42
2363.91
2924.77
3309.4
3506.78
2162.51
3082.06
3782.79
4264.86
4517.25
2822
3947.97
4785.97
5374.04
5699.92
3652.32
4952.58
5890.44
6588.45
7031.22
4536.87
5888.59
6830.46
7613.06
8228.09
5135.67
6460.07
7357.68
8173.36
8910.05
1639.84
2358.19
2913.05
3293.4
3488.97
2109.94
3005.32
3686.3
4154
4398.34
2660.72
3738.37
4542.24
5100.24
5402.11
3258.97
4496.09
5398.14
6039.92
6409.58
3804.79
5143.43
6097.34
6800.92
7240.98
4135.71
5512.3
6476.64
7206.71
7689.85
4850.6
3172.23
807.029
607.795
702.125
603.121
748.446
4428.94
4230.64
2709.39
3444.16
1615.84
2178.73
1341.06
1498.85
1248.78
4130.92
2268.1
1459.45
1289.43
1640.63
1417.3
1095.56
1043.94
993.917
866.249
1183.92
1063.59
4431.33
2672.16
3051.91
1940.38
1598.84
2256.3
1125.35
879.034
1245.5
9804.83
9775.47
9842.26
10890.2
17534.4
6977.35
7905.47
8537.72
9471.78
10928.4
2124.04
3039.03
3740.32
4221.95
4472.27
1611.21
2328.52
2887.14
3270.12
3465.88
1861.37
2689.7
3333.38
3772.96
3996.66
1601.33
2319.25
2880.09
3264.29
3459.95
1979.11
2849.63
3522.3
3981.96
4217.16
9687.91
10639.2
11097.9
12198.1
18672.2
9458.56
10607.2
11255.9
12258.1
14148.1
6410.3
7989.63
9051.41
10009.8
10936.4
8174.1
9742.31
10520.7
11343.6
12087.9
4110.28
5614.38
6686.6
7433.72
7857.78
5357.66
7001
8114.11
8940.03
9478.56
3471.22
4850.69
5861.49
6548.53
6912.87
3852.89
5332.76
6399.04
7124.03
7513.68
3250.83
4577.06
5558.28
6220.91
6565.36
8989.46
9878.07
10358.8
11471.9
17855.9
5471.88
6998.12
8058.19
8981.81
9831.71
3739.74
5159.55
6190.72
6914.89
7328.87
3325.61
4629.68
5591.86
6267.21
6647.5
4131.19
5578.05
6618.19
7397.15
7913.48
3615.55
4962.7
5946.13
6661.71
7095.51
2839.59
3980.31
4832.58
5431.31
5763.3
2726.9
3860.52
4714.49
5302.74
5614.83
2613.96
3733.67
4584.06
5160.65
5456.19
2285.59
3280.15
4042.96
4562.15
4827.75
3084.38
4349.3
5291.91
5935.16
6274.56
2781.26
3942.77
4817.54
5416.5
5731.35
9252.12
9618.71
9841.94
10918.3
17425.6
6096.48
7257.36
8055.52
8980.82
10162.9
7141.35
8476.24
9223.39
10308.3
12501.1
4730.36
6130.14
7114.26
7954.66
8652
4014.66
5400.41
6397.78
7164.06
7682.17
5415.63
6887.76
7918
8860.49
9769.58
2919.88
4097.9
4977.84
5592.94
5931.18
2313.2
3308.24
4068.72
4588.84
4857.92
3214.01
4478.03
5413.65
6073.4
6445.94
8365.91
7928.5
7154.34
6034.55
4441.56
1752.43
19271.2
19604.4
22151.3
22887.5
18827.9
19914.4
21129.2
20409.4
15883
19822.6
16529.1
20363.1
18950.2
17058.3
26698.7
18487.2
18675.8
20861.1
21346
17771.8
18843.5
20159.1
19655.9
15794.2
23935.5
16349.1
23756.7
19115.4
20792
28634.2
17588.7
17645.2
19204.4
19435.1
16959.6
18447.6
18847.7
18857.9
18082
21089.8
18844.7
21068.8
20732.7
22882.8
25689.3
16720.1
16796.6
17667.4
17733.5
16442.2
18167.6
17487.4
17780.4
16869.6
18359.3
17601
17860.8
18863.5
20458.9
22078.1
15819.7
15930.8
16596.6
16575.7
16062.7
17935.7
16567
17046.1
15903.5
15054.7
16660
14421.7
17253.7
17103
18113.5
15404.4
15560.5
15876.1
15821.2
15617.3
17150.3
15966.4
16365.2
15126.2
12865.3
15680.1
12578.2
15982.7
14925.1
16315.2
21904.4
21029
23045.5
24247.4
20218.5
20144.6
21413.3
20389.8
19256.8
14259.4
19191.3
14323.9
17024.4
15397.8
18541.2
20603.6
19968.1
21237.4
22030.4
19464.5
19561.9
20147
19287.6
17759.2
13735.6
17725.2
13822.6
15522.9
13825.3
17074.6
18873.9
18493.9
19050.2
19440.2
18194.3
18306.1
18496.9
17969.5
16742.7
13343.8
16522.5
13082.2
14794.8
12567
16613
17184.8
16964.2
17316.9
17496.6
16761.3
16811.6
17113
16691.6
15613.6
13537.9
15493.6
13229.1
14029.1
12488.4
16671.1
16242.4
16093.3
16310.5
16399.7
15771.4
15818
16252.1
15976.8
15219.8
14356.6
15139.5
14203.4
13959
12851.2
16996.9
15565.4
15428.8
15706.7
15764.9
15173.7
15411.2
15628.9
15502.4
15008.3
14866.6
14988.5
14786.1
13944
13270.5
17536.5
11840
6719.57
19473.2
12797.9
21299.5
15756.4
33367.2
41443.5
43919.5
53814.1
28449.8
24707.2
18039.2
14342.3
8791.89
5853.88
20109.9
20466.8
17363.2
20344.1
27175.8
24141.8
31453
25336.9
8291.7
5942.21
4606.94
3441.62
10072.1
8199.68
6149.57
5002.8
18530
19155
18853
15779.4
14575.8
11482.2
11510.6
13097.3
18533
18471.7
39026.6
40373.4
27546.2
28412
15844.7
13362.1
17188.8
12240.6
7996.02
8229.9
6492.81
9267.49
3371.08
4117.82
9052.61
12600.8
5420.2
6373.75
9984.81
17045.1
6944.3
11472.2
2639.62
6802.6
2195.66
5066.8
17994.1
22263.1
18655.4
22223.2
21981.7
22160.8
22474.6
21932.2
15933.1
21633.6
16299.4
21333
18414.6
22101.4
18429.7
22067.1
22712.6
21684.9
22662.2
21495.9
14747.2
21742.3
14251
21830.3
18159.6
21471.8
22926.3
32213.1
19241.7
24877.6
22730.7
35093.6
17213.7
18861.2
23008.2
30917.3
17032.5
17631.8
23254
30661
5503.42
7277.87
14116.7
24960.4
6906.2
7892.51
18358.9
28512.3
8542.32
8643.26
23157.2
31614.3
24826.2
26437.2
21216.1
20699.8
30432.7
26555.9
25246.9
21618.1
18899.7
34914
24231.7
24071.6
21628.8
21776.1
39708.8
2096.21
2543.09
4521.66
10582.2
3029.73
3451.12
6341.14
11897.7
4483.47
3803.6
8558.2
13521.9
26161.3
25622.3
23730.1
23126.6
20564.9
18628.3
15673.4
13768.7
11199.8
15746.3
23885.9
22886.1
24226.8
23668.5
21228
19766.7
17737.6
15832.8
11909.1
15822.7
24089.7
27071.4
24049.6
27782.5
23155.8
23893.9
22636.9
24116.7
22058.4
22416.4
21869.4
21747.3
23873.3
27916.8
23777.5
27906.2
21993.5
24441.3
21825.2
24400.2
22144.1
22365.6
22146.5
22358.8
18676.7
17747.3
12079.3
13479.7
18558.8
17294.5
11907.2
13575.1
18927.9
17684.8
12336.9
13514.2
19004.3
17503.6
12718.7
13514.2
1695.23
1122.9
766.468
978.944
654.583
606.57
2405.83
1398.44
1041.97
1933.42
1529.77
1300.24
2749.66
2223.62
2203.47
3376.88
2718.72
2419.6
24172.2
21506.9
19689.1
22368.4
20453.6
18980.3
16125
14757
14000.5
11069.7
9425.75
8719.12
5159.35
3725.21
3120.23
21935
19990.2
18411.3
22674.3
20331.9
18572.7
16914.2
14267
12780.2
11111
8707.06
7720.94
5477.58
3698.89
2931.09
27462.1
26789.3
29979.1
26823.6
30873.1
26829.3
37364.1
28324.3
21034.6
21402.4
20763.7
19350.6
23777.3
22317.6
23386
19935.2
23188.3
22959
21340.9
22755.4
28289.5
25489.9
28302.9
28767.2
30813.4
31902.2
23544.3
24459.4
21072.9
20469.5
25575.6
26267.8
16561.1
8972.09
15513.1
9927.29
16791
9044.53
15468.9
9858.56
16573.9
9090.48
15439
10271.5
15040.1
10746
15235.5
10659.1
21349.2
18181.4
21290.4
18193.4
23621.6
21272.9
23927.1
21105.4
20814.5
15153.9
21647.1
14923.7
21805.5
18129.9
22102.2
17932.8
24590
20959.2
24629.7
20702.3
20654.2
15217.3
20614.7
15128.5
13639
9132.71
11991.3
7771.69
12679.1
8185.34
11504.5
7267.02
13995.6
9701.81
12196.9
8008.48
14024.8
10046.5
12170.2
8067.16
2593.87
1351.46
4792.8
2612.01
2781.15
1675.05
5121
3138.89
3416.99
2519.68
5665.63
4086.2
13128.1
20374.4
9471.7
9096.17
6541.63
19905
13827
8107.69
8158.47
5398.58
20765.6
16308.7
12948.4
10087.4
6381.56
719.893
531.775
1524.35
1141.62
1035.96
711.195
2145.27
1711.49
1784.86
1365.65
3081.63
2511.47
20125.7
19324.7
13593.2
12905.1
8819.69
8784.77
7429.83
6733.47
4620.44
3784.01
18927.5
17084
14624.2
12718.7
11360.1
9972.63
8649.59
7705.12
5629.12
5477.06
15035.4
12047.8
15153.5
11791.4
18141.9
14961.9
18136.3
14799
12646.3
10142.8
12253.1
10153.8
15174.7
11628.3
15087
11615.4
18085.4
15105.8
17920.8
15070.4
12885.3
9999.96
12866
10133.3
9850.55
8231.85
6618.55
6847.91
9482.13
8036.78
6317.31
6480.93
10273.2
8399.99
6788.7
7242.8
10514.5
8399.26
7050.96
7346.7
1625.78
1424.39
1177.11
7054.63
3762.7
3067.23
1611.97
1581.51
1401.36
7730.84
4513.13
3819.24
2228.92
2482.34
2535.55
8607.41
5683.49
5048.36
17963.4
16559.5
15586.5
12210.6
11667.6
11336.9
8851.4
8616.23
8544.44
7526.86
7187.84
6965.61
9864.36
7053.42
6347.8
15364
13931.6
12989.1
11356.7
10389.2
9845.84
9371.04
8553.6
8101.91
8925.36
7814.57
7180.31
12032
7970.62
7117.29
4972.04
3100.25
2127.25
1661.55
5584.75
3360.81
2241.56
1702.84
4997.82
3098.56
2132.55
1673.49
5707.34
3432.22
2290.33
1729.33
4988.31
3069.29
2145.62
1677.4
5824.13
3477.24
2350.29
1745.48
6265.23
3679.1
2390.92
1794.59
6450.59
3820.01
2460.42
1854.8
5316.11
3266.65
2234.98
1704.75
4374.33
2877.81
2055.58
1635.57
4675.14
2964.69
2091.27
1597.82
4034.9
2715.64
1975.24
1573.34
5747.37
3495.3
2334.46
1773.23
4578.65
2996.62
2106.39
1683.87
5991.26
3651.48
2407.33
1826.82
4669.76
3082.2
2151.04
1716.19
3768.46
2669.19
1944.18
1579.17
2476.99
2154.61
1720.6
1484.77
3782.33
2657.65
1942.19
1576.7
2588.24
2185.01
1730.93
1493.7
3876.55
2658.8
1956.95
1588.56
2915.84
2281.8
1770.07
1529.58
3837.63
2598.68
1926.33
1621.55
3199.6
2350.66
1821.95
1525.82
3582.33
2527.24
1884.88
1550.55
1194.52
1739.89
1377.93
418.348
-220.6
1509.96
1240.3
437.478
1427.91
1817.81
1409.02
441.003
61.7193
1597.21
1267.81
446.973
1866.95
1955.22
1455.61
439.611
546.038
1742.42
1306.79
451.957
2408.41
2120.19
1527.34
477.005
1069.25
1905.24
1364.34
471.305
2774.35
2273.13
1616.88
553.592
1229.24
2031.18
1418.24
488.31
2965.69
2444.42
1656.15
528.27
968.745
2171.07
1519.6
518.582
2890.08
2368.66
1626.56
528.186
921.304
2106.29
1468.05
500.66
2993.62
2498.18
1676.78
493.798
922.745
2226.33
1552.79
521.68
3056.39
2554.04
1719.91
503.848
1024.82
2285.14
1593.27
534.157
1414.43
1028.55
679.551
383.093
123.412
1399.66
1026.47
680.04
383.6
123.585
1433.37
1037.84
683.895
385.05
123.977
1423.81
1038.36
685.846
386.274
124.362
1468.58
1050.37
689.269
387.419
124.657
1453.04
1051.7
692.334
389.276
125.238
1473.77
1066.78
700.846
393.443
126.477
1508.43
1088.34
712.912
399.37
128.242
1504.18
1065.38
696.95
391.057
125.727
1604.4
1083.54
702.041
392.908
126.228
1511.41
1061.46
693.263
389.059
125.118
1602.12
1076.95
697.957
390.876
125.62
1517.71
1078.64
704.576
394.813
126.846
1633.91
1096.38
708.96
396.285
127.233
1552.83
1099.59
715.919
400.329
128.485
1671.16
1115.07
718.77
401.037
128.645
1452.68
1033.77
679.53
382.675
123.256
1526.15
1039.68
679.706
382.436
123.163
1470.71
1041.14
682.788
384.111
123.668
1540.74
1045.28
682.206
383.543
123.48
1505.34
1052.83
687.681
386.264
124.285
1570.42
1054.91
686.447
385.444
124.027
1560.73
1066.14
692.609
388.366
124.884
1606.04
1065.25
691.263
387.646
124.666
1613.02
1072.98
695.383
389.599
125.238
10515.7
16256.2
11033.7
16566.3
11697.9
16862.7
12104.3
16994
11522.9
16223.6
10558.2
11915.3
10609.2
12561.8
10596.2
11776.1
10771
11902.6
9382.5
1600.06
341.948
76.8068
13.6191
10441.9
2973.42
722.6
164.167
29.0943
9455.91
1594.06
338.786
75.835
13.4116
10510.5
2957.99
716.588
162.078
28.4844
9492.01
1578.22
332.778
74.2013
13.0987
10523.9
2932.33
706.946
159.373
27.9745
9340.9
1520.39
317.878
70.7319
12.4818
10334.6
2854.5
686.008
154.454
27.0905
8792.38
1395.04
291.153
65.0085
11.5011
9725.23
2691.92
649.258
146.64
25.7639
7726.46
1274.82
274.834
62.3964
11.1281
7913.16
2300.47
569.971
130.943
23.2369
8046.48
1306.44
278.324
62.7838
11.1593
8443.36
2450.05
601.562
137.071
24.1904
7594.93
1265.08
273.97
62.3472
11.1305
7722.42
2230.85
553.153
127.485
22.6886