/*--------------------------------*- C++ -*----------------------------------*\
  =========                 |
  \\      /  F ield         | OpenFOAM: The Open Source CFD Toolbox
   \\    /   O peration     | Website:  https://openfoam.org
    \\  /    A nd           | Version:  11
     \\/     M anipulation  |
\*---------------------------------------------------------------------------*/
FoamFile
{
    format      ascii;
    class       volScalarField;
    location    "1.7";
    object      gradTz;
}
// * * * * * * * * * * * * * * * * * * * * * * * * * * * * * * * * * * * * * //

dimensions      [0 -1 0 1 0 0 0];

internalField   nonuniform List<scalar> 
5712
(
7524.43
24704.3
5980.38
25326.4
4481.64
26163.5
7054.2
40236.4
8664.13
55296.5
8611.23
40331.6
8318.2
33506.9
8646.68
29957.1
5232.46
3257.24
13993.5
8329.08
5115.21
2764.09
15269.9
7585.41
5742.96
4190.22
18400.2
13015
4345.04
3155.39
18094.2
13209.9
10197.5
4326.61
8828.37
3948.08
4082.98
9543.02
35027.3
9476.37
12558.2
4220.55
45022.2
12197
11716.5
4012.44
25078.2
7772.3
12881.9
4479.31
21861.8
6941.78
6406.39
3176.74
9233.37
3613.1
6937.75
3746.19
8994.94
3469.09
8746.75
4995.97
7753.91
3387.55
11370.1
4100.6
3904.17
1367.58
12919.7
9016.36
7951.38
5842.64
14255.9
11749
7772.07
6727.25
7602.58
5190.33
10812.7
7317.37
5211.26
3844.25
2612.51
2149.66
4984.33
4305.82
2537.04
2455.11
5041.96
3335.35
2555.13
1650.06
6841.31
3733.42
5178.65
6201.27
9439.55
6725.01
7560.97
10661.7
4496.15
2139.7
3038.14
3535.65
2212.11
924.922
1300.57
1306.41
8570.34
15339.3
5790.08
17095.4
10006.3
14998.1
7102.4
17857.3
11315.8
13545.9
9105.79
17362
12973.8
15215.6
9984.51
9686.95
10539.8
15234.7
14351.7
14336.4
14830.8
21273.8
12392.9
9753.71
8594.89
9656.66
14975.4
17809.7
15950.2
20621.1
19899
16311.1
15155
20338.9
19461.6
14106.6
13800.5
19040
18725
11168.8
8822.77
10655.9
9370.63
11755.7
10648
12741.3
12345.7
17450.3
17990.3
10418
9119.16
10144.6
9930.32
10595.4
11424.7
11980.4
13639.3
15585.1
18235
8666.72
6818.87
5916.3
7483.38
11527.5
13949.7
7960.25
12529.3
5083.56
6628.02
7615.83
6304.13
1466.79
4950.38
728.952
1762.84
4052.39
8387.67
1468.07
2885.49
758.948
4245.29
393.35
1478.46
5030.57
5100.71
5722.79
3608.25
7993.98
6441.14
9398.8
6560.9
1236.74
2794.46
2847.64
1654.71
1563.47
2015.25
2199.47
1666.57
12760.2
7778.69
2461.59
14416
8308.53
2726.07
12246.8
7698.86
2610.41
14175.7
8316.17
2724.73
11265
7076.83
2332.97
13810.6
8346.07
2792.72
5872.98
3256.63
906.702
7656.21
5064.16
1754.1
9225.43
6360.58
2193.75
10724.1
6971.54
2319.96
13659.8
8558.64
2990.31
6910.74
3964.94
1284.69
7297.07
5270.58
1994.49
8742.07
6455.21
2379.8
10888.5
7655.71
2747.62
13829.9
8682.36
3090.99
297.874
2030.01
2870.24
4141.83
2239.9
2559.96
5612.42
5312.69
603.546
1021.46
644.247
1063.57
484.049
1406.04
865.859
1843.84
3212.64
1571.23
4070.56
2357.69
2153.4
3756.98
3416.9
862.281
6208.33
1458.64
-2032.14
607.495
1730.42
1246.12
1166.11
1028
9701.38
4352.49
2644.06
1611.29
9854.03
4519.04
3337.43
2043.48
9727.06
4855.41
4824.28
3327.06
3448.93
2445.06
1627.16
1553.85
12739.4
11299.2
5978.1
6191.97
13848.5
12977.8
6819.21
6863.13
5250.27
5391.35
10842.6
9022.35
3536.19
3706.7
1929.9
2222.09
4174.81
4148.5
2247.73
2423.76
3037.84
3289.48
1655.34
2084.31
4626.16
3169.03
4595.11
3182.76
7235.68
4171.93
6863
4409
2754.37
2285.6
2895.71
2047.3
1493.62
1407.96
1827.99
1193.02
11405.3
7743.52
5634.19
5598.73
11363.6
7968.21
5659.68
5573.6
11834.4
8367
5740.61
5435.37
13976.2
15244.5
12626.7
8349.71
4627.47
14450.8
13204.1
12124.2
9888.69
6210.34
13534.4
12101.2
9571.84
7275.63
4428.85
6394.48
5552.82
5873.14
6568.18
6661.17
5515.07
5963.39
6520.5
7059.61
5596.81
6074.68
6496.49
10901.4
7718.29
10014.5
6951.05
7763.88
6223.34
7147.69
6037.02
5670.91
6490.34
9065.14
7880.22
7905.26
6880.62
6647.68
5987.08
5754.44
5647.54
4447.34
6165.8
7064.52
4782.57
4687.52
2823.91
9342.74
7207.42
6478.21
5236.59
3772.72
2261.57
5480.11
4024.92
4710.79
2232.97
1696.31
972.633
5039.74
3658.66
1730.71
1437.57
4031.76
1788.46
1563.54
815.297
3067.25
2781.25
2618.47
3795.92
4275.11
3980.18
3329.74
4839.64
3130.7
1990.82
1914.12
2591.65
920.985
434.818
160.015
456.806
3806.04
1590.51
470.365
4325.35
1129.06
301.57
3894.85
1735.16
533.586
4343.75
1182.7
331.747
3717.08
1757.42
457.848
4313.72
1217.59
287.955
4808.97
2478.58
577.014
4223.08
2058.06
497.707
4022.81
1935.58
528.435
3884.32
1821.24
394.012
4339.13
1210.11
185.737
6027.01
3070.05
841.829
5295.5
2640.65
730.495
4704.13
2325.46
678.537
4345.02
1869.13
465.335
4715.64
1143.26
281.729
1668.3
591.701
125.837
-148.526
696.076
259.547
72.8434
-27.099
1765.61
646.837
173.258
-85.9149
883.421
358.049
172.478
78.9586
1891.34
716.341
257.068
14.0256
1502.88
679.693
250.316
51.4803
1133.38
614.587
191.027
-25.228
1040.08
655.903
356.47
198.935
1555.03
673.307
194.981
-147.545
1319.97
564.183
240.985
-140.263
1841.17
702.671
229.082
-92.2423
1655.54
634.479
252.563
-227.664
1237.48
616.547
230.529
-51.1085
1006.18
491.127
253.22
1.58652
900.167
531.783
298.62
173.46
684.772
406.847
260.335
145.195
2108
712.496
131.136
-299.136
2060.05
653.062
190.415
-403.753
2105.67
722.048
147.884
-285.515
1997.47
635.315
196.566
-392.304
2065
723.264
218.003
-194.554
1868.66
601.238
236.17
-315.307
1811.89
667.314
291.366
-3.41577
2050.31
672.173
326.445
-366.028
1609.29
593.524
287.246
-81.8859
1609.95
457.94
167.489
-266.878
635.731
166.011
44.8279
-52.5026
1671.87
490.162
183.625
-253.76
666.138
180.032
56.1548
-40.6967
1715.62
526.778
222.004
-219.902
684.878
196.339
70.4866
-26.6995
1552.97
496.755
252.514
-169.42
669.934
203.235
95.4748
-1.69755
1426.46
493.24
267.872
-92.7249
605.283
214.419
127.835
31.5193
985.716
390
185.077
-30.358
568.679
273.71
158.637
80.0677
1143.16
401.261
199.286
-69.9744
577.079
241.798
144.3
56.6324
789.344
370.825
194.868
27.6567
503.943
282.064
168.324
102.849
551.026
329.232
213.51
125.37
413.139
274.349
181.923
131.228
-13.3533
5.02112
4.96466
3.26153
2.3434
-1.99005
3.42257
2.76754
1.76405
1.25866
6.86963
15.0236
10.238
6.27863
4.43722
19.967
14.8471
8.925
5.31374
3.72715
28.1652
26.8051
16.6582
9.99873
7.02802
79.375
50.0009
28.7102
16.8901
11.8143
93.8793
58.4645
33.5884
19.8011
13.8689
137.172
77.5498
43.2862
25.3234
17.7113
48.6895
39.1919
23.5948
14.0722
9.88844
52.5517
36.9413
21.6692
12.8571
9.02399
33.332
31.1083
18.9689
11.3233
7.94969
63.417
38.6178
21.7122
12.7114
8.87693
63.3625
46.5829
27.7243
16.5112
11.6016
70.8757
44.1946
25.3661
14.9711
10.499
108.86
62.3773
34.914
20.4453
14.3058
91.0561
51.4923
28.7758
16.8552
11.7986
-24.8626
2.37293
3.64673
2.49104
1.80345
-13.6797
0.643421
1.37415
0.949322
0.687828
-11.6181
8.64843
6.88554
4.32747
3.07331
-8.89073
2.90963
2.53358
1.60344
1.13886
4.78273
15.7049
10.3911
6.30054
4.43482
9.37521
10.464
6.30083
3.7201
2.59876
41.2362
30.7272
17.8108
10.4459
7.28179
28.0381
19.6736
11.1387
6.48979
4.51346
78.1319
41.2611
22.3608
12.9003
8.96241
1851.48
4220.06
1889.83
4188.9
2087.75
4168.52
2480.24
4331.78
2571.64
4447.01
1066.78
1593.2
1714.53
2668.33
583.367
795.47
215.169
272.379
9549.43
2285.56
525.077
117.599
29.3115
2609.32
703.614
187.451
42.732
9.32416
9419.22
2236.73
513.478
114.061
28.6433
2657.51
784.229
193.645
45.1295
11.2434
8961.66
2114.24
483.72
107.345
26.9954
2579.53
757.729
186.57
43.2605
10.8169
8167.4
1910.76
436.029
96.7133
24.337
2501.09
719.212
174.822
40.1829
9.9956
6800.07
1583.42
361.658
80.3528
20.252
2353.32
658.68
158.417
36.1938
8.9792
3185.33
775.889
180.361
40.3902
10.2033
1147.11
326.15
77.8758
17.4955
4.33231
4767.86
1144.97
264.038
58.8239
14.8314
1687.26
473.496
113.946
26.02
6.49899
1864.42
457.724
106.914
24.0643
6.09243
644.491
190.44
45.2561
10.1691
2.54251
644.527
157.366
36.8634
8.33024
2.11149
258.768
69.8721
15.4892
4.31867
0.856014
-13.0218
421.4
4668.77
-929.572
767.297
822.264
2398.79
3074.05
1943.57
3642.87
3077.86
4745.42
3723.83
4619.76
1930.37
2597.8
2050.06
2432.29
1065.34
1107.72
2318.26
1665.21
591.171
-337.625
-626.44
-747.409
-148.953
13367.5
3509.21
4517.18
3038.66
16.216
146.223
3130.66
-1158.66
-572.773
-853.563
-456.106
7322.8
3940.21
1528.18
1195.23
3738.39
2150.73
729.325
1456.73
-1273.55
-670.244
825.346
685.602
8828.16
4321.85
5479.23
2922.88
4103
4674.78
1641.68
-700.35
1071.7
1615.91
1295.24
1091.15
953.115
700.519
1305.23
1037.83
799.563
553.724
234.095
517.069
426.402
320.271
201.372
69.4963
-301.497
-251.465
-187.515
-115.124
-38.749
-559.29
-466.627
-348.402
-214.258
-72.1649
-668.273
-558.582
-417.914
-257.475
-86.816
-129.043
-101.924
-69.8747
-38.7424
-11.9831
9512.22
8013.02
6609.6
5794.32
5119.41
2995.91
2517.73
2234.34
1778.4
901.907
3422.1
2670.91
2163.19
1620.53
808.486
2292.7
1778.47
1472.14
1086.82
442.3
110.934
105.73
174.662
163.784
76.382
202.933
240.073
239.77
186.445
74.553
2619.13
2140.32
1641.43
1110.29
443.959
-681.841
-317.463
-114.506
-12.0423
9.44204
-450.668
-314.764
-184.9
-84.2488
-20.536
-587.776
-352.867
-172.914
-61.7291
-10.8592
-414.98
-345.917
-253.209
-150.95
-49.2184
5326.91
4683.2
3924.09
3475.6
3080.94
3007.94
2336.03
1875.59
1370.14
641.34
1374.75
1196.67
971.614
670.113
257.002
1039.67
871.153
680.88
453.832
168.528
3096.08
2468.3
1848.11
1203.78
454.562
1886.57
1578.05
1217.38
793.432
283.709
631.5
522.408
399.711
259.226
92.9944
1276.31
1057.34
799.997
507.641
176.967
-1102.72
-887.898
-639.859
-382.246
-126.397
-589.885
-481.284
-348.655
-207.517
-68.1333
727.631
613.532
478.65
315.611
114.388
607.366
514.219
401.715
263.956
94.7084
5643.36
4038.51
3368.18
2970.67
2477
3273.35
2512.64
1903.21
1323.57
580.25
3990.48
3207.32
2525.05
1894.77
893.012
2318.06
1862.93
1422.93
974.672
412.885
3468.24
2807.56
2114.58
1367.35
499.319
3523.11
2584.52
2030.17
1463.54
598.667
1425.36
1172.9
885.651
563.977
198.124
-621.906
-513.568
-377.523
-228.045
-75.7114
934.396
782.636
610.207
404.412
147.601
-29060.9
-47444.2
-24114.2
-38385.6
-25752.6
-53725.3
-30806.9
-68245.5
-18436.8
-12641.9
-20671.9
-12920
-16962.3
-10918.3
-20939.9
-11069.3
-24123.7
-18242.5
-35029.3
-25312.2
-20732.4
-16586.2
-29253
-22041
-16572
-16990.8
-13626.9
-13151.1
-16103.8
-15103
-40101.1
-11066.8
-15330.9
-5742.53
-48929.9
-13588.7
-13699
-5131.94
-29905.9
-9416.95
-15701
-6024.29
-26645.1
-8272.24
-12537.5
-5054.76
-15909.8
-5773.71
-11910.5
-5249.13
-13822.3
-5013.35
-12335.1
-6007.28
-11042.3
-4395.06
-14096.7
-4987.14
-4939.46
-1736.96
-10568.6
-7097.15
-9121.75
-5609.44
-9276.05
-7494.35
-7979.87
-5711.41
-9303.44
-5356.83
-10913.4
-6896.79
-6254.27
-3765.73
-3365.92
-2087.96
-5394.9
-3737.28
-2819.1
-2020.94
-6364.14
-3500.37
-3504.65
-1778.81
-8222.63
-4184.93
-5372.81
-6207.74
-10459.4
-7043.5
-7585.06
-10500.7
-5564.1
-2500.27
-3214.32
-3576.41
-2989.41
-1204.63
-1442.74
-1351.12
-12390.5
-15140.8
-7004.3
-17167.7
-12883
-14447
-8047
-17548.1
-13016.2
-13141.5
-9588.55
-16685.7
-8851.2
-7118.37
-9748.02
-10837.2
-10821.2
-9704.6
-11293.6
-13174.2
-14238.4
-20215.8
-6721.46
-7006.57
-7662.24
-9266.05
-14390.5
-14416
-10069.5
-18319.7
-14119.3
-13364.8
-9908.84
-18050.5
-14066.6
-11827.1
-9270.59
-16849.4
-13934.2
-7942.09
-6321.71
-8307.07
-6662.82
-9322.12
-7576.19
-10247
-8730.83
-15344.9
-14015
-7441.28
-6447.47
-7592.65
-6675.8
-8418.32
-7961.04
-10135.9
-10134.3
-14119.5
-14620.4
-6878.28
-5493.76
-5061.2
-6564.3
-8487.03
-11602.4
-6421.09
-10726.9
-4685.71
-6118
-6693.63
-5480.83
-974.322
-4332.61
-313.931
-1298.07
-3125.72
-7360.02
-738.583
-2090.5
-538.127
-3902.63
-197.641
-1215.26
-4830.85
-4792
-5560.65
-3377.04
-7480.09
-5834.91
-9002.95
-5957.86
-1130.97
-2599.87
-2746.45
-1515.76
-1469.78
-1863.51
-2115.04
-1554.94
-6120.59
-2105.3
-8290.08
-2826.49
-6257.72
-2198.93
-8487.51
-3044.47
-6212.93
-2166.21
-8981.44
-3457.19
-3737.31
-1062.19
-4707.19
-1799.09
-5362.19
-2075.42
-6481.17
-2448.47
-9490.6
-3772.24
-4726.12
-1451.23
-4398.7
-2149.57
-5345.22
-2518.38
-7183.06
-3122.21
-9871
-3728.86
-6381.32
-5964.95
-4882.23
-4765.37
-10731.6
-8205.06
-8765.91
-7254.39
-4250.54
-3612.93
-1750.37
-1235.72
-4023.24
-3817.68
-1634.02
-1675.48
-3128.85
-4746.18
-3678.53
-5122.88
-3829.85
-2612.75
-3424.89
-650.027
-7107.83
-1943.45
2495.46
261.389
-1059.14
-429.481
94.8438
504.027
-2386.93
-1608.35
-899.623
-510.104
-2562.59
-1712.81
-1380.77
-614.746
-2886.08
-2070.94
-1891.11
-896.542
-1323.32
-190.138
489.17
935.229
-5236.75
-5608.2
-4082.91
-3799.51
-7133.68
-7135.63
-5945.73
-4990.4
-2645.85
-2912.01
-3894.86
-4442.19
-2510.57
-2169.49
-1096.83
-996.025
-3847.98
-3025.03
-1972.59
-1557.3
-1423.72
-1555.23
-311.085
-641.197
-1707.25
-1141.86
-2409.45
-1659.88
-2606.4
-2001.34
-3682.3
-2698.48
-663.687
-383.91
-1206.79
-658.254
322.33
460.892
-347.771
130.991
-3409.8
-4198.2
-2778.99
-4029.91
-3386.4
-4223.87
-2842.93
-4021.17
-3608.81
-3957.18
-3010.46
-3824.99
-2991.06
-4993.94
-2485.84
-2069.49
-2103.75
-7433.06
-5195.47
-4618.24
-4589.43
-4434.11
-5977
-4933.39
-4060.11
-3641.3
-2692.96
-4885.14
-4811.06
-6136.91
-9454.79
-4670.83
-4359.8
-5899.11
-9026.93
-4366.13
-4111.36
-5455.24
-8347.34
-7174.76
-5487.78
-6334.35
-4774.82
-5365.29
-4203.79
-5262.42
-4733.5
-5082.15
-7710.43
-5808.59
-5449.89
-4803.72
-4758.03
-4158.39
-4315.69
-4085.77
-4769.17
-3498.27
-6676.4
-3939.04
-2795.18
-2733.27
-1046.36
-5798.24
-5053.08
-4509.5
-3359.71
-2037.89
-717.926
-3069.07
-2390.26
-3278.36
-1037.63
-509.722
58.0341
-3743.13
-2474.46
-718.032
-439.472
-2643.91
-710.249
-332.919
144.3
-1739.78
-1718.73
-1790.44
-3344.32
-2677.26
-2932.11
-2538.28
-4641.83
-1934.12
-1152.91
-1008.21
-2055.55
229.961
377.178
793.925
173.849
-3423.33
-998.431
-6311.37
-599.785
-3222.24
-1085.86
-6148.66
-624.167
-2519.42
-669.749
-5589.76
-465.489
-3030.2
-697.576
-2700.3
-638.799
-2797.99
-849.613
-2776.78
-517.74
-5257.03
-635.063
-4150.33
-838.77
-3680.62
-601.696
-3567.92
-692.201
-3769.97
-543.606
-5525.6
-659.878
-698.973
-159.16
117.899
321.931
-238.808
-44.7227
43.3912
98.729
-693.594
-133.036
125.903
296.635
-173.217
13.1226
33.3961
44.4121
-714.872
-103.215
114.169
246.676
-48.9617
173.243
287.191
308.543
447.889
379.788
447.143
440.151
863.475
587.661
435.916
301.187
-332.351
71.8391
298.951
500.922
-263.615
122.786
222.479
490.861
-766.469
-90.2516
169.755
395.561
-583.992
21.7579
188.459
602.657
84.9218
237.172
323.153
419.696
31.3936
213.346
229.295
348.169
496.797
396.64
316.088
236.977
347.388
308.935
238.19
215.868
-1092.39
-259.015
137.748
528.818
-1342.22
-296.247
8.86868
652.122
-1050.22
-228.406
151.847
539.215
-1292.39
-275.236
10.0263
645.905
-980.445
-181.471
104.56
455.211
-1177.57
-235.321
-22.2451
579.983
-656.014
-55.8876
86.2969
308.625
-1221.77
-206.921
-37.5938
716.59
-608.275
-5.38485
110.885
454.759
-1233.07
-223.3
-35.972
451.235
-534
-84.8149
11.5316
112.045
-1154.4
-194.326
-21.0832
453.445
-508.931
-75.3125
13.2646
109.319
-994.421
-137.449
-18.3029
438.288
-435.133
-51.4082
23.4407
113.934
-819.803
-89.2523
-36.2929
389.314
-357.639
-27.0693
19.8521
107.267
-604.782
-12.4528
5.54025
331.191
-186.734
28.6827
27.9062
103.029
-278.738
94.587
154.507
318.677
77.9497
161.133
134.106
153.373
-500.495
12.745
79.3975
322.971
-22.434
101.569
80.6895
128.37
-6.37862
184.531
197.022
288.422
181.024
209.931
172.231
164.258
269.463
263.383
204.789
204.516
290.52
248.461
182.191
151.155
69.6549
18.9173
7.02776
3.51234
2.34681
29.2127
9.01567
3.61392
1.86573
1.25934
79.9064
26.8059
11.8238
6.39541
4.38112
44.8559
19.0022
9.39534
5.29246
3.66835
97.7668
37.3506
17.9077
9.99782
6.91426
113.888
54.9117
28.9322
16.6497
11.6089
127.354
63.8751
34.0918
19.6793
13.7287
141.152
78.054
43.1769
25.1964
17.6231
117.289
48.999
24.6254
13.9563
9.68238
99.3065
43.2636
22.1331
12.601
8.75364
106.251
40.649
19.909
11.2127
7.7727
86.4968
40.0073
21.1623
12.1892
8.50509
125.855
56.3539
28.9635
16.5197
11.4823
100.586
48.7175
25.7736
14.8272
10.3261
117.762
63.6044
34.976
20.3786
14.2475
97.9983
52.6199
28.8586
16.7957
11.737
76.6171
16.9896
5.71956
2.75093
1.81738
35.8321
6.94272
2.23001
1.06069
0.699455
81.558
21.5714
8.60415
4.50231
3.05729
37.578
8.57816
3.26672
1.69188
1.14713
83.2458
25.8901
11.6161
6.36871
4.38671
40.9948
13.7385
6.59997
3.72221
2.58557
91.2323
35.9938
18.2052
10.4082
7.26167
53.6121
21.3731
11.0302
6.3465
4.43772
74.7921
39.0736
21.4463
12.5343
8.78826
-1919.72
-3647.5
-1980.92
-3658.74
-2168.27
-3693.64
-2391.16
-3799.67
-2320.83
-3822.42
-939.076
-1431.48
-1532.44
-2360.93
-477.5
-687.764
-119.506
-185.25
-9394.25
-2233.92
-511.005
-114.093
-28.3689
-2532.93
-686.018
-182.475
-41.4788
-9.02393
-9225.73
-2180.23
-498.927
-110.573
-27.7165
-2583.21
-764.745
-188.377
-43.7828
-10.8821
-8711.9
-2051.98
-468.936
-103.961
-26.1203
-2500.69
-736.553
-181.059
-41.905
-10.4601
-7887.2
-1848.2
-422.091
-93.6453
-23.5648
-2401.55
-694.692
-168.984
-38.8306
-9.65297
-6561.33
-1532.18
-350.494
-77.9357
-19.6529
-2234.37
-632.343
-152.601
-34.9128
-8.66505
-3114.59
-758.072
-176.136
-39.4359
-9.96191
-1080.2
-309.439
-74.0849
-16.6705
-4.13173
-4630.76
-1112.76
-256.766
-57.2306
-14.4365
-1591.86
-452.005
-109.249
-25.0044
-6.25314
-1827.22
-448.14
-104.545
-23.5112
-5.94844
-597.694
-177.739
-42.191
-9.47694
-2.36874
-620.971
-151.352
-35.3405
-7.96478
-2.01401
-221.818
-59.4553
-12.8519
-3.69858
-0.696875
-26.1174
-1285.58
-5800.23
694.507
-6731.71
-2966.47
-6526.97
-3028.57
-11946.2
-6378.81
-13377.1
-7084.77
-118.786
-440.628
-688.332
-810.826
-720.751
-250.963
-194.526
-692.937
-1051.61
-1169.06
-946.055
-301.691
-99.402
-104.256
-349.368
-349.989
-497.015
-492.583
-475.335
-456.498
-417.172
-414.65
-301.716
-295.07
856.815
2142
3476.16
2471.75
2255.94
1062.25
774.432
2177.86
3542.57
4123.93
3442.9
1546.51
-107.024
-90.3662
-68.3926
-42.5742
-14.4474
-397.531
-336.225
-254.93
-158.933
-53.9794
-620.911
-525.067
-398.054
-248.139
-84.2736
-731.144
-618.019
-468.32
-291.844
-99.0995
-649.965
-549.371
-416.199
-259.272
-88.0155
-228.922
-195.556
-149.141
-93.0562
-31.5548
-175.125
-147.731
-111.71
-69.4947
-23.5752
-624.635
-527.794
-399.815
-249.096
-84.5746
-947.544
-800.269
-605.986
-377.46
-128.147
-1052.42
-887.983
-671.838
-418.256
-141.966
-850.864
-717.189
-542.15
-337.342
-114.48
-272.744
-231.042
-175.243
-109.165
-37.039
-89.6375
-75.7652
-57.4031
-35.7631
-12.1416
-94.0719
-79.5726
-60.3345
-37.6129
-12.774
-315.362
-266.892
-202.484
-126.293
-42.904
-315.978
-267.469
-202.963
-126.613
-43.0163
-448.582
-379.58
-287.933
-179.569
-60.999
-444.528
-376.095
-285.248
-177.875
-60.4197
-429.062
-363.087
-275.416
-171.746
-58.3361
-411.721
-348.086
-263.804
-164.402
-55.8242
-376.658
-318.733
-241.656
-150.576
-51.1132
-373.481
-315.224
-238.463
-148.38
-50.3394
-273.273
-231.723
-175.647
-109.197
-36.9779
-265.701
-224.043
-169.181
-105.039
-35.5778
757.912
629.017
470.991
292.617
99.6063
1886.02
1560.41
1167.94
727.56
248.8
3022.63
2481.29
1856.79
1166.36
404.91
2133.72
1746.99
1310.91
827.868
288.572
1979.32
1625.52
1214.71
755.464
246.26
961.823
807.015
612.329
382.601
122.112
686.163
570.147
426.955
264.992
90.0844
1924.34
1595.98
1194.87
742.738
253.115
3109.11
2565.91
1918.68
1196.13
409.809
3593.42
2951
2204.93
1379.38
475.437
2998.99
2461.79
1840.29
1152.15
395.851
1361.5
1129.48
852.167
536.544
184.296
228.102
551.325
800.747
924.512
833.742
374.353
349.663
847.665
1201.52
1303.36
1051.03
374.652
184.076
175.203
433.656
421.759
578.175
562.525
547.443
514.625
489.376
428.895
431.284
340.369
-711.445
-1923.01
-3098.94
-1970.84
-1656.92
-413.856
-712.667
-2080.82
-3328.53
-3739.26
-2890.47
-888.615
206.196
174.821
132.891
83.0216
28.2299
498.009
421.849
320.367
199.993
67.9754
723.059
612.231
464.763
290.046
98.5679
834.618
706.497
536.181
334.551
113.681
753.062
637.793
484.23
302.194
102.691
341.599
292.288
223.631
140.083
47.6375
315.936
267.722
203.409
127.032
43.1872
765.175
647.661
491.505
306.673
104.209
1083.89
916.761
695.255
433.6
147.307
1174.82
992.801
752.366
469.005
159.307
946.743
799.524
605.584
377.411
128.191
339.369
288.24
219.293
136.978
46.552
166.429
141.135
107.304
67.0452
22.7987
158.406
134.328
102.125
63.8073
21.6972
391.846
332.045
252.256
157.514
53.5439
381.106
322.953
245.352
153.204
52.0788
522.307
442.468
336.044
209.784
71.303
508.096
430.353
326.785
203.975
69.3234
494.671
419.162
318.405
198.79
67.5674
464.68
393.425
298.624
186.338
63.3183
442.681
375.507
285.456
178.271
60.5932
387.182
327.701
248.633
155.082
52.6842
391.778
333.655
254.308
158.945
54.0086
307.681
260.719
197.927
123.442
41.9191
-625.478
-515.664
-384.005
-237.893
-80.9388
-1686.88
-1390.3
-1037.75
-645.925
-221.049
-2677.04
-2183.28
-1626.61
-1021.15
-355.508
-1661.2
-1326.74
-975.589
-609.511
-212.044
-1407.58
-1112.72
-801.266
-482.224
-148.294
-340.872
-247.974
-159.682
-82.1125
-14.3428
-630.194
-522.55
-390.682
-242.307
-82.3746
-1836.74
-1521.82
-1138.66
-707.785
-241.292
-2913.8
-2398.34
-1789.84
-1115.03
-382.173
-3237.8
-2641.31
-1962.9
-1224.66
-422.082
-2483.57
-2008.67
-1482.49
-920.931
-315.283
-745.168
-585.247
-420.395
-256.244
-86.3363
-1499.63
-946.497
-297.432
586.69
883.943
1120.43
497.879
-11084.5
-1834
-3257.68
-1546.29
204.084
-3947.1
777.566
2379.15
1104.39
-6032.66
-2784.28
-555.482
-611.925
-3363.28
-1331.78
-306.375
-1043.01
2012.66
1225.11
-541.504
-218.41
-7854.26
-3625.62
-4371.62
-2124.31
-3510.96
-3454.11
-1126.66
1234.17
-452.114
-740.992
-477.042
-390.699
-454.545
-497.134
-591.922
-379.157
-251.832
-178.308
-92.943
-247.795
-194.206
-140.752
-87.7709
-30.6274
530.865
450.319
342.17
213.541
72.5625
796.367
672.114
508.187
315.93
107.092
1009.42
852.056
644.497
400.891
135.95
452.881
385.036
291.703
180.632
60.8449
-7763.28
-6703.56
-5785.67
-5583.04
-5594.82
-1166.59
-748.533
-800.309
-877.106
-603.349
-2263.29
-1629.52
-1346.47
-1120.77
-665.288
-983.428
-628.916
-551.252
-474.332
-207.005
194.741
162.891
109.454
51.0924
9.37732
-3256.4
-2624.44
-1980.19
-1318.54
-520.493
705.029
590.889
436.622
261.658
84.6754
2059.79
1673.88
1230.52
754.35
254.812
989.707
827.816
619.029
380.67
127.779
-4113.77
-3683.33
-3205.12
-3126.42
-3156.31
-1899.46
-1336.39
-1083.52
-872.214
-484.382
-430.903
-341.704
-285.236
-226.432
-105.163
-489.273
-383.137
-295.276
-207.139
-84.4128
-2777.5
-2213.86
-1668.23
-1102.76
-426.208
-1109.83
-885.868
-667.394
-438.795
-161.06
-238.252
-177.872
-129.383
-86.3598
-33.6051
-893.808
-724.76
-541.315
-343.577
-120.906
1792.49
1494.07
1117.41
689.439
232.631
1103.63
929.414
699.319
431.795
145.406
-448.618
-357
-270.022
-179.337
-67.2927
-168.609
-126.518
-95.655
-67.5736
-27.1647
-4729.3
-3217.34
-2711.91
-2567.73
-2401.63
-2610.26
-1915.5
-1421.19
-1006.96
-469.012
-2881.53
-2212.26
-1715.07
-1365.67
-690.789
-1559.5
-1181.54
-876.152
-618.977
-291.117
-2919.23
-2327.6
-1740.4
-1130.69
-419.234
-2381.6
-1554.66
-1219.09
-952.231
-427.675
-951.017
-761.846
-566.818
-362.212
-129.309
1113.58
939.928
709.21
439.169
148.243
-351.745
-267.145
-203.014
-143.235
-57.8701
1.73891
37.7924
83.8502
103.262
58.3551
-56.3605
-20615.4
-18208.6
-17302.1
-19714.5
-15123.4
-11984.1
-13577.2
-10314.4
-17938.1
-15772.2
-16533.2
-15589.7
-14520.7
-12385.3
-15278.8
-16998.9
-15204.8
-13927.6
-15700
-12793.2
-10837
-11390.7
-9137.26
-16121.7
-14377.4
-14861.3
-13583.5
-12883.4
-12025.8
-12452
-13380
-12270
-11039.3
-12074.6
-10657.3
-9160.57
-9524.29
-8178.49
-13523
-12347.4
-12593.1
-11548.9
-10966.4
-10139
-10482.8
-9370.07
-8819.78
-7799.94
-8271.47
-7919.24
-7107.33
-7083.09
-6474.6
-9779.83
-9900.06
-9230.62
-9331.86
-8241.58
-7455.89
-8292.98
-6002.33
-5739.02
-5022.98
-5241.88
-5310.99
-4812.45
-4678.64
-4321.69
-6486.05
-6497.88
-6197.61
-6083.22
-5648.1
-5107.19
-5536.59
-2162.45
-2086.03
-1817.75
-1882.57
-1963.25
-1834.71
-1715.31
-1599.31
-2456.67
-2460.09
-2301.37
-2203.66
-2122.73
-1948.62
-2089.85
-7749.63
-7633.39
-11639.6
-12551.4
-7279.49
-6460.06
-10206.8
-8295.66
-5996.2
-4394.41
-5955.22
-4371.25
-5973.46
-5724.52
-4456.41
-7707.51
-7312.52
-10359.5
-11298.4
-6788.34
-6142.07
-9009.82
-7753.78
-5952.14
-3821.58
-5851.32
-4054.97
-5343.37
-5146.08
-4456.28
-7014.04
-6684.94
-8773.58
-9409.78
-6281.5
-5841.11
-7849.7
-6942.35
-4893.49
-4102.57
-4883.86
-4353.12
-4560.54
-4575.53
-4544.93
-5632.98
-5423.03
-6561.37
-6893.03
-5150.77
-4814.98
-6073.2
-5539.75
-4650.27
-3651.44
-4576.63
-3917.03
-4282.81
-4262.29
-4031.29
-3870.83
-3750.04
-4329.69
-4495.42
-3489
-3228.82
-4079.13
-3744.46
-3242.65
-2790.41
-3173.98
-2954.71
-2973.6
-2928.81
-2848.62
-1437.53
-1394.4
-1580.57
-1633.04
-1291.92
-1187.25
-1498.45
-1380.25
-1057.33
-1018.75
-1129.86
-1118.87
-1098.42
-1070.45
-1036.97
7490.49
24195.4
5947.64
25324.4
4464.73
26165.5
7049.81
40244.9
8659.02
55308.6
8594.1
40328
8282.87
33489
8622.52
29309.9
5225.03
3255.49
13994.4
8329.23
5113.62
2763.89
15273.2
7586.61
5707.05
4161.93
18032.3
12771.7
4323.56
3146.4
18109.5
13228.4
10203.9
4319.71
8828.89
3945.65
4078.1
9551.26
35036.9
9477.7
12560.4
4220.59
45032.8
12199.3
11718.9
4013.11
25091.4
7774.69
12885.6
4479.91
21879.1
6944.91
6345.77
3147.02
9072.34
3552.44
6938.5
3746.8
9009.95
3474.78
8745.81
4996.18
7758.81
3389.91
11379.5
4104.17
3906.45
1368.47
12918.6
9015.65
7951.21
5842.44
14254.2
11747.7
7772.21
6727.07
7602.74
5190.31
10812
7317.08
5211.65
3844.27
2612.13
2149.47
4984.99
4305.95
2537.08
2455.1
5042.81
3335.43
2554.89
1649.86
6842.2
3734
5178.84
6201.58
9439.43
6725.34
7561.07
10662.1
4497.57
2140.31
3038.33
3535.85
2212.26
925.029
1300.47
1306.42
8521.75
15335.8
5755.41
17088.1
10008.4
14993.7
7105.98
17854.1
11316
13544.8
9106.66
17361.3
12972.8
15213.4
9984.06
9687.42
10540.6
15232.7
14350.5
14335.5
14830.4
21273.8
12391.2
9752.8
8594.49
9656.69
14975.8
17837.2
15993.6
20629.9
19880.2
16303.4
15149.3
20330.1
19456.2
14103.8
13796.7
19038.6
18723.1
11167.3
8821.7
10654.7
9369.51
11754.5
10646.6
12739.6
12343.7
17449.6
17989.1
10416.8
9118.11
10143.7
9929.28
10594.7
11423.7
11979.8
13638.3
15585.2
18234.5
8666.21
6818.61
5916.09
7483.33
11526.5
13948.9
7959.83
12528.8
5083.51
6628.11
7615.59
6304.03
1466.65
4950.36
728.86
1762.81
4052.26
8387.48
1468.07
2885.45
758.856
4245.36
393.236
1478.43
5030.67
5100.84
5723.02
3608.34
7993.99
6441.18
9399.08
6560.97
1236.74
2794.52
2847.75
1654.75
1563.46
2015.27
2199.52
1666.59
12791
7794.81
2471.41
14424.6
8319.72
2729.86
12242.8
7697.76
2610.34
14172.2
8314.36
2724.51
11262.3
7075.48
2332.64
13808.6
8344.65
2792.33
5872.17
3256.11
906.525
7655.21
5063.47
1753.87
9224.07
6359.67
2193.45
10722.3
6970.4
2319.62
13658.5
8557.55
2989.94
6909.89
3964.38
1284.48
7296.08
5269.83
1994.2
8740.96
6454.33
2379.46
10887.3
7654.74
2747.25
13829
8681.42
3090.6
303.436
2032.15
2884.96
4146.42
2242.34
2561.08
5620.63
5315.35
586.577
1009.15
625.009
1047.03
488.367
1405.53
870.29
1842.9
3225.15
1576.55
4075.31
2359.01
2157.1
3765.11
3421.75
866.294
6211.26
1460.69
-2019.81
616.09
1736.31
1251.44
1176.1
1035.97
9714.96
4349.87
2633.88
1604.34
9844.89
4518.75
3335.16
2043.26
9721.92
4854.33
4825.69
3326.69
3453.06
2445.58
1632.22
1555.67
12735.7
11297.1
5979.1
6192.04
13845.9
12976
6819.78
6863.12
5251.32
5391.35
10838.9
9020.55
3538.42
3707.31
1931.7
2222.69
4176.16
4148.89
2248.59
2424.07
3040.36
3290.07
1657.68
2085.01
4626.56
3169.02
4595
3182.66
7233.21
4171.18
6861.7
4408.38
2756.2
2286.16
2896.16
2047.54
1495.8
1409
1828.63
1193.48
11435.6
7747.64
5636.98
5598.96
11355.1
7967.42
5658.23
5573.32
11826.4
8363.45
5738.77
5434.07
13971.1
15240.8
12621.5
8346.06
4626.32
14447.8
13200
12119.8
9884.99
6208.85
13531.9
12098.3
9569.29
7273.76
4428.04
6392.06
5553.46
5869.24
6562.39
6659.33
5514.92
5961.04
6519.44
7057.46
5595.45
6073.71
6495.8
10899.4
7717.07
10011.9
6949.6
7761.4
6221.83
7145.5
6035.58
5669.79
6489.39
9063.51
7878.97
7903.26
6879.19
6645.77
5985.69
5752.9
5646.34
4446.49
6164.86
7062.87
4781.54
4686.98
2823.44
9341.27
7206.44
6477.69
5236.09
3772.27
2261.18
5478.73
4024.02
4710.77
2232.83
1696.58
972.743
5039.68
3658.5
1730.85
1437.62
4031.74
1788.36
1563.85
815.431
3066.91
2780.86
2618.24
3795.51
4274.12
3979.42
3329.21
4838.97
3130.69
1990.71
1914.14
2591.5
921.303
434.963
160.309
456.926
3808.25
1593.74
472.194
4328.99
1135.41
303.153
3893.81
1735.36
533.615
4341.89
1181.51
331.779
3716.2
1757.15
457.831
4313
1217.08
287.848
4808.19
2478.14
576.87
4222.25
2057.64
497.579
4021.95
1935.18
528.323
3883.44
1820.85
393.9
4338.47
1209.79
185.643
6026.14
3069.56
841.659
5294.58
2640.18
730.344
4703.23
2325.02
678.402
4344.21
1868.75
465.213
4714.97
1143.05
281.666
1661.86
588.155
123.885
-149.155
689.38
256.337
71.4883
-27.5774
1765.85
646.884
173.228
-86.0582
883.503
358.064
172.402
78.833
1891.22
716.306
257.035
13.9405
1502.72
679.632
250.267
51.3904
1133.44
614.6
191.034
-25.2461
1040.65
656.131
356.573
198.971
1555.03
673.321
194.993
-147.555
1319.99
564.213
241.005
-140.242
1840.98
702.621
229.064
-92.2777
1655.39
634.442
252.547
-227.667
1237.67
616.641
230.583
-51.0843
1006.34
491.22
253.274
1.62017
900.596
531.983
298.723
173.507
685.042
406.998
260.422
145.247
2107.22
711.606
129.799
-300.091
2062.22
653.598
189.995
-405.089
2105.18
721.807
147.802
-285.64
1997.02
635.128
196.567
-392.326
2064.58
723.105
217.947
-194.61
1868.19
601.074
236.13
-315.318
1811.54
667.172
291.289
-3.4977
2049.88
672.035
326.388
-366.043
1609.06
593.446
287.193
-81.9562
1614.8
459.685
167.957
-268.679
638.769
166.966
44.9679
-53.1886
1669.63
489.436
183.426
-253.564
665.188
179.736
56.0379
-40.6064
1715.03
526.521
221.927
-219.899
684.579
196.211
70.4325
-26.6926
1552.59
496.602
252.451
-169.428
669.746
203.153
95.4324
-1.71647
1426.2
493.142
267.82
-92.7394
605.161
214.364
127.796
31.4909
985.705
390.02
185.09
-30.3449
568.688
273.718
158.635
80.0592
1143.04
401.231
199.27
-69.9761
577.016
241.767
144.273
56.6068
789.442
370.897
194.912
27.6899
504.032
282.121
168.354
102.866
551.215
329.352
213.583
125.422
413.295
274.452
181.985
131.271
-14.111
4.58435
4.72971
3.12827
2.25234
-2.46215
3.14525
2.61525
1.67681
1.19853
6.86693
15.0278
10.2405
6.28042
4.43904
19.9623
14.8479
8.92516
5.31371
3.72727
28.1502
26.801
16.6551
9.99636
7.02628
79.3475
49.9855
28.6981
16.8811
11.8075
93.8694
58.4563
33.5807
19.7948
13.8636
137.188
77.5567
43.2885
25.3238
17.7113
48.6761