/*--------------------------------*- C++ -*----------------------------------*\
  =========                 |
  \\      /  F ield         | OpenFOAM: The Open Source CFD Toolbox
   \\    /   O peration     | Website:  https://openfoam.org
    \\  /    A nd           | Version:  11
     \\/     M anipulation  |
\*---------------------------------------------------------------------------*/
FoamFile
{
    format      ascii;
    class       volScalarField;
    location    "1.7";
    object      T;
}
// * * * * * * * * * * * * * * * * * * * * * * * * * * * * * * * * * * * * * //

dimensions      [0 0 0 1 0 0 0];

internalField   nonuniform List<scalar> 
5712
(
537.718
554.458
526.995
547.226
511.534
537.304
484.893
515.413
484.512
508.668
508.333
532.003
522.764
543.272
532.249
550.536
502.585
481.946
523.031
493.21
474.096
452.626
494.486
462.526
545.975
553.664
559.192
563.435
535.465
544.977
552.77
558.795
535.965
520.267
512.972
502.604
532.141
546.647
542.768
542.451
503.672
507.942
518.751
517.829
472.653
476.167
549.92
552.133
524.106
530.38
559.225
562.037
558.798
567.286
566.696
570.604
551.776
564.488
563.192
569.189
537.75
558.442
549.616
564.245
558.352
567.659
561.741
568.863
467.224
455.019
474.904
457.68
435.191
424.367
443.195
427.25
502.819
486.728
495.58
483.866
480.387
458.978
481.854
458.812
448.687
428.767
450.164
428.722
507.972
488.098
509.429
488.043
527.453
555.592
515.123
546.819
520.633
551.505
511.556
543.466
532.273
557.939
516.868
548.586
533.81
558.801
517.046
549.382
551.874
538.181
563.391
553.341
541.773
528.2
559.293
547.97
526.672
514.155
552.152
540.076
451.827
414.6
484.16
510.629
543.33
408.825
445.869
478.025
502.904
533.001
414.405
448.326
478.984
506.318
536.87
513.828
492.718
518.874
498.686
507.931
488.317
517.002
496.673
498.711
480.435
514.135
494.134
398.423
385.518
436.388
422.728
467.013
451.959
490.804
474.162
513.173
494.603
402.818
388.76
438.034
426.653
468.897
456.708
495.084
480.806
517.275
501.195
442.229
436.443
440.908
435.666
407.588
388.464
407.717
387.916
471.567
469.594
472.934
469.444
438.571
434.765
438.537
434.999
407.02
388.048
407.164
388.375
468.936
468.714
468.909
469.045
499.964
497.91
522.944
520.105
499.995
495.986
522.141
516.93
498.727
497.881
523.08
521.103
497.433
497.128
521.988
520.149
470.363
453.501
444.85
473.486
455.283
446.309
467.475
450.342
441.329
471.692
452.873
443.434
459.981
442.796
433.686
469.132
448.956
438.766
371.743
362.059
357.386
406.917
393.252
385.949
434.244
417.436
408.067
453.797
435.388
425.637
468.365
445.912
434.332
373.534
361.524
355.63
412.761
397.854
389.731
439.93
421.418
410.865
459.377
437.178
424.869
471.529
445.972
432.363
406.077
397.097
411.831
402.932
438.316
422.755
449.119
430.567
381.425
358.57
382.633
360.517
382.795
361.428
384.659
363.477
384.298
380.358
383.688
378.176
364.921
368.521
407.146
409.991
436.202
439.071
387.625
392.063
387.594
390.282
371.607
374.805
336.441
318.647
341.749
321.919
339.145
319.257
344.322
322.946
343.458
320.104
350.46
324.937
354.339
328.001
356.213
329.862
379.487
369.999
387.082
373.567
405.479
395.031
413.166
398.397
366.172
352.415
358.902
348.934
391.412
375.571
393.274
376.194
417.872
400.224
419.528
400.507
370.261
354.47
372.221
355.274
346.206
322.392
335.255
316.972
339.626
318.507
332.116
314.711
350.207
325.3
337.165
318.441
352.373
327.285
338.021
319.25
320.159
309.41
312.21
305.243
322.485
312.106
312.596
306.026
326.969
318.095
313.633
308.216
360.3
383.723
342.972
330.1
313.656
378.651
355.615
336.489
324.316
310.09
383.444
360.222
341.718
327.302
311.946
300.795
293.085
298.586
291.656
303.746
295.825
299.927
293.051
309.622
301.353
302.554
295.638
368.21
356.077
345.753
334.467
328.995
319.385
317.191
308.319
305.713
298.678
371.791
357.133
349.583
336.084
332.913
321.393
319.96
309.585
307.67
299.876
353.908
336.075
357.142
338.252
376.813
356.865
379.457
357.877
339.18
323.633
336.18
321.351
359.835
339.658
360.57
340.298
381.299
358.467
381.792
358.967
341.86
325.235
342.61
325.819
323.42
310.428
309.371
299.7
321.772
308.697
308.574
299.017
324.861
311.694
309.91
299.979
326.369
312.422
310.828
300.841
285.258
281.508
280.049
280.754
277.797
276.798
288.134
283.918
282.25
282.138
279.005
277.851
293.562
288.809
286.84
284.336
280.606
279.177
344.188
336.28
332.604
324.22
317.84
315.074
310.363
304.718
302.465
299.315
293.593
291.118
285.992
281.512
279.732
343.107
333.138
328.765
323.811
315.299
311.629
310.455
303.077
300.02
298.654
292.284
289.841
285.111
280.849
279.185
304.421
295.051
289.002
284.647
305.846
295.577
289.133
284.596
304.522
295.138
289.098
284.73
306.357
295.846
289.345
284.773
304.515
295.218
289.35
285.017
306.764
296.116
289.694
285.092
308.117
296.793
289.826
285.029
309.246
297.482
290.144
285.179
305.885
295.959
289.779
285.256
304.105
295.561
289.856
285.678
304.136
295.215
289.581
285.372
303.069
295.035
289.637
285.687
307.319
296.651
289.995
285.274
304.963
296.042
290.092
285.813
308.446
297.283
290.313
285.492
305.672
296.486
290.382
286.063
302.115
294.255
288.875
284.852
299.413
293.36
288.719
285.168
302.141
294.298
288.959
284.945
299.639
293.463
288.783
285.234
302.286
294.409
289.136
285.156
300.283
293.734
288.938
285.369
302.147
294.467
289.316
285.449
300.803
293.985
289.133
285.569
301.939
294.532
289.465
285.754
297.244
292.708
288.43
285.728
295.993
292.386
288.329
285.907
297.711
292.881
288.522
285.796
296.505
292.573
288.415
285.96
298.564
293.211
288.67
285.891
297.391
292.911
288.558
286.051
299.606
293.643
288.921
286.059
298.408
293.329
288.764
286.182
300.61
294.142
289.23
286.244
299.277
293.774
289.002
286.34
301.998
295.054
289.704
286.522
300.546
294.693
289.576
286.729
301.356
294.616
289.462
286.372
299.934
294.244
289.282
286.524
302.55
295.46
289.915
286.662
301.125
295.14
289.855
286.933
303.112
295.86
290.182
286.871
301.724
295.579
290.151
287.159
280.954
278.518
276.838
275.799
275.305
280.95
278.522
276.842
275.801
275.307
281.001
278.541
276.85
275.806
275.31
281.012
278.554
276.858
275.811
275.313
281.067
278.572
276.865
275.814
275.316
281.085
278.592
276.878
275.822
275.321
281.174
278.642
276.907
275.839
275.333
281.3
278.714
276.947
275.862
275.349
281.152
278.616
276.89
275.828
275.325
281.236
278.643
276.901
275.835
275.33
281.122
278.593
276.876
275.82
275.32
281.196
278.619
276.888
275.827
275.324
281.23
278.662
276.915
275.843
275.336
281.31
278.684
276.924
275.848
275.339
281.351
278.729
276.952
275.865
275.351
281.417
278.742
276.956
275.867
275.352
280.971
278.515
276.834
275.796
275.303
280.992
278.514
276.832
275.795
275.302
281.008
278.533
276.843
275.801
275.307
281.02
278.528
276.839
275.799
275.305
281.069
278.56
276.857
275.809
275.312
281.071
278.552
276.851
275.806
275.31
281.136
278.588
276.871
275.817
275.317
281.127
278.579
276.866
275.814
275.315
281.171
278.603
276.879
275.821
275.321
526.508
523.353
526.226
523.108
526.105
523.153
526.915
524.081
529.671
526.888
534.88
535.256
533.338
532.726
535.514
536.258
535.706
536.315
563.573
570.978
572.543
572.898
572.974
555.606
568.791
572.046
572.79
572.949
563.679
571.014
572.552
572.9
572.975
555.743
568.845
572.057
572.794
572.95
563.773
571.049
572.562
572.902
572.975
555.906
568.904
572.074
572.798
572.951
564.115
571.136
572.582
572.907
572.976
556.353
569.023
572.102
572.804
572.952
564.847
571.293
572.616
572.914
572.978
557.289
569.234
572.147
572.814
572.954
565.532
571.386
572.631
572.916
572.978
559.571
569.697
572.239
572.832
572.958
565.353
571.366
572.629
572.916
572.979
558.699
569.513
572.203
572.825
572.957
565.586
571.391
572.631
572.916
572.978
559.992
569.797
572.26
572.836
572.959
565.657
571.407
572.635
572.917
572.979
560.085
569.834
572.266
572.837
572.959
420.791
458.086
455.654
416.391
399.082
400.612
402.58
405.538
414.761
418.87
446.027
455.532
454.302
464.493
429.367
434.119
416.593
420.113
409.557
411.695
362.47
344.461
298.551
292.641
295.07
292.315
296.626
359.397
352.676
335.581
341.614
337.699
316.371
325.962
321.585
310.774
314.227
309.106
356.664
330.019
313.899
310.458
318.198
314.112
306.578
304.782
302.703
299.44
307.547
304.887
358.999
337.375
345.23
326.01
318.684
330.871
307.062
300.193
309.768
344.142
328.493
314.878
300.698
284.217
333.355
321.984
309.776
296.611
281.714
295.923
292.275
287.546
282.045
276.07
290.676
287.911
284.28
280.023
275.384
292.848
289.726
285.638
280.86
275.666
290.39
287.674
284.102
279.911
275.345
294.226
290.87
286.494
281.39
275.846
341.632
325.463
311.781
298.129
283.216
335.386
319.709
306.653
293.921
280.441
326.041
315.58
304.258
292.398
279.79
327.233
313.493
301.673
290.279
278.902
324.263
311.113
299.752
288.925
278.345
311.014
304.232
296.127
287.22
277.812
318.429
309.651
299.807
289.401
278.566
314.852
306.814
297.676
288.005
278.046
306.413
300.674
293.603
285.692
277.29
309.172
302.718
294.972
286.47
277.542
305.012
299.566
292.801
285.199
277.121
340.6
325.406
312.143
298.504
283.384
322.211
313.122
302.802
291.62
279.523
309.104
302.875
295.263
286.755
277.668
306.238
300.648
293.696
285.823
277.356
312.715
305.783
297.453
288.18
278.198
309.392
303.234
295.647
287.071
277.799
302.946
298.046
291.84
284.711
276.982
301.388
296.761
290.865
284.086
276.761
299.565
295.249
289.717
283.356
276.507
296.709
292.916
288.006
282.314
276.157
303.734
298.607
292.165
284.85
277.013
301.463
296.801
290.873
284.077
276.755
342.135
327.023
313.735
299.868
284.026
328.045
317.913
306.694
294.457
280.762
334.032
321.664
309.412
296.3
281.54
319.329
311.212
301.64
290.968
279.25
313.272
306.378
298.013
288.596
278.352
323.087
314.001
303.604
292.236
279.774
303.362
298.374
292.066
284.84
277.023
297.368
293.461
288.416
282.574
276.247
305.673
300.225
293.414
285.666
277.306
501.783
541.19
494.955
535.965
470.867
516.7
477.414
521.964
483.134
468.978
515.242
486.811
457.816
442.876
488.1
457.819
519.061
533.68
549.96
556.7
512.526
526.784
545.866
553.296
528.48
502.321
506.328
488.944
516.495
540.377
540.391
541.899
501.014
507.28
516.68
517.318
470.717
475.675
547.419
551.577
521.397
529.725
557.295
561.635
548.048
563.793
562.898
569.339
541.491
561.142
559.883
568.032
528.019
555.33
544.867
562.661
556.649
567.061
561.399
568.735
462.539
454.457
471.884
457.509
433.569
426.085
441.855
428.346
499.155
485.988
489.545
482.341
478.986
458.997
481.494
458.858
448.099
429.426
450.04
428.966
506.247
487.805
508.969
487.985
524.564
554.622
514.454
546.621
515.907
549.936
510.266
543.102
530.885
557.451
516.576
548.496
533.43
558.66
516.976
549.358
534.312
518.456
557.921
546.998
525.954
511.004
554.303
542.405
513.699
500.71
548.109
535.933
453.02
424.657
479.443
505.092
541.476
421.492
448.359
472.785
496.257
530.938
422.306
449.99
477.304
504.366
536.378
496.648
481.693
513.195
499.226
492.749
478.478
512.619
498.163
486.482
472.669
511.633
496.912
414.14
404.891
440.859
430.387
464.06
452.112
486.433
473.177
513.085
498.67
413.621
402.184
442.117
433.901
469.261
460.728
494.763
484.117
518.073
505.139
444.393
440.35
442.326
438.053
412.899
396.452
410.587
392.319
472.082
470.832
473.381
471.323
439.402
436.017
438.811
435.383
408.506
390.233
407.634
389.034
469.314
469.413
469.043
469.264
500.165
498.617
523.211
520.69
500.045
497.204
522.504
518.098
498.9
498.27
523.243
521.394
497.501
497.259
522.042
520.237
472.465
468.406
487.179
481.724
469.304
464.632
485.86
479.404
463.247
458.423
483.953
476.057
396.937
391.454
422.068
416.049
443.181
436.6
463.154
456.531
483.746
473.136
391.529
385.021
426.539
419.079
451.577
442.427
471.169
459.838
485.072
471.226
402.659
395.955
411.83
403.122
429.112
417.451
446.48
428.361
384.217
364.444
387.904
366.841
383.817
366.454
387.995
368.687
386.446
381.312
385.804
380.359
369.244
372.347
407.481
410.138
435.358
438.871
389.044
392.547
388.943
390.756
374.059
375.674
348.803
330.019
350.515
331.061
350.424
329.811
351.703
330.795
353.52
329.503
356.204
331.329
357.75
331.966
357.394
331.239
385.101
376.763
389.769
377.441
407.506
399.572
413.862
401.021
370.576
356.999
367.233
356.718
392.791
377.631
393.714
376.861
418.263
401.641
419.682
400.98
372.553
356.929
372.938
356.062
352.014
327.793
339.904
320.946
349.581
326.437
339.704
320.736
353.324
328.471
339.708
320.712
353.348
328.321
338.838
319.99
345.357
340.64
327.486
323.367
346.884
342.437
327.098
323.18
349.361
345.871
326.568
323.308
379.533
400.262
362.664
346.429
324.226
398.613
379.359
362.32
345.553
322.584
396.64
375.132
355.772
339.077
320.187
334.868
328.153
317.751
309.219
337.304
330.954
318.145
309.943
341.194
335.415
318.784
310.987
391.886
383.667
373.091
366.001
356.577
350.786
340.017
333.885
318.36
310.861
388.245
376.045
367.459
356.063
349.125
338.88
333.016
323
316.195
307.931
363.273
347.057
362.098
344.095
385.116
367.711
383.716
363.584
344.203
328.982
345.162
331.002
362.3
342.53
361.329
341.153
383.39
361.261
382.438
359.798
344.424
327.907
343.403
326.619
327.91
314.723
312.84
302.738
329.433
316.147
314.104
303.986
327.256
313.909
311.834
301.619
327.146
313.118
311.437
301.341
322.581
320.656
295.21
293.853
326.126
323.819
296.23
294.697
330.688
326.984
297.386
294.231
376.398
371.22
359.542
355.079
345.187
341.38
327.346
322.128
296.534
291.522
365.262
360.142
346.1
341.721
329.532
325.694
312.462
308.483
291.009
287.224
311.834
299.513
291.68
286.256
312.357
299.621
291.599
286.091
311.428
299.327
291.602
286.211
312.03
299.415
291.532
286.094
310.651
298.994
291.644
286.371
311.391
299.067
291.544
286.221
311.117
298.747
291.059
285.79
310.31
298.185
290.59
285.459
309.691
298.43
291.373
286.272
307.062
297.565
291.214
286.615
309.349
298.505
291.656
286.652
307.353
297.854
291.467
286.878
309.667
298.207
291.016
285.947
306.712
297.25
290.935
286.426
309.243
297.817
290.666
285.726
306.254
296.892
290.669
286.276
310.792
299.264
291.843
286.641
309.229
298.895
291.976
287.176
310.395
299.106
291.808
286.646
308.993
298.797
291.927
287.162
309.746
298.843
291.79
286.729
308.653
298.625
291.847
287.145
308.605
298.428
291.74
286.906
308.122
298.393
291.787
287.181
307.461
298.04
291.67
287.143
307.649
298.573
291.854
288.05
306.554
298.394
291.879
288.416
307.592
298.513
291.831
288.041
306.522
298.336
291.845
288.394
307.411
298.378
291.732
287.968
306.377
298.208
291.753
288.335
307.024
298.15
291.652
287.912
306.036
298.002
291.647
288.267
306.331
297.812
291.553
287.866
305.364
297.706
291.507
288.183
304.798
297.018
291.054
287.548
303.579
296.867
291.055
287.855
305.506
297.419
291.311
287.715
304.41
297.304
291.303
288.041
304.176
296.629
290.739
287.313
302.865
296.426
290.746
287.622
303.643
296.247
290.458
287.091
302.282
295.998
290.444
287.387
281.821
278.997
277.103
275.953
275.413
281.777
278.984
277.097
275.95
275.411
281.792
278.978
277.092
275.946
275.408
281.734
278.957
277.082
275.941
275.404
281.764
278.955
277.078
275.938
275.402
281.683
278.925
277.063
275.93
275.397
281.59
278.874
277.036
275.914
275.385
281.457
278.802
276.996
275.891
275.369
281.69
278.914
277.054
275.924
275.393
281.713
278.904
277.046
275.919
275.388
281.759
278.942
277.069
275.932
275.398
281.767
278.929
277.059
275.926
275.394
281.6
278.867
277.029
275.91
275.382
281.634
278.862
277.023
275.906
275.379
281.48
278.801
276.992
275.888
275.367
281.53
278.804
276.991
275.887
275.366
281.883
279.012
277.108
275.956
275.414
281.938
279.023
277.111
275.957
275.416
281.864
278.999
277.1
275.951
275.411
281.922
279.013
277.105
275.954
275.413
281.838
278.978
277.087
275.943
275.406
281.892
278.993
277.094
275.947
275.408
281.821
278.958
277.075
275.936
275.4
281.85
278.969
277.08
275.939
275.402
281.803
278.945
277.067
275.931
275.397
525.768
524.146
526.02
524.367
526.704
525.035
528.15
526.34
530.879
528.907
535.256
535.738
533.996
533.669
535.71
536.493
535.767
536.386
563.654
571.02
572.555
572.901
572.975
555.924
568.887
572.071
572.796
572.951
563.816
571.062
572.565
572.903
572.975
556.157
568.955
572.085
572.801
572.951
563.996
571.105
572.575
572.905
572.976
556.45
569.03
572.102
572.804
572.952
564.389
571.195
572.595
572.91
572.977
556.968
569.156
572.13
572.81
572.954
565.084
571.341
572.627
572.916
572.979
557.843
569.353
572.172
572.819
572.956
565.619
571.407
572.636
572.918
572.979
559.771
569.75
572.252
572.835
572.959
565.502
571.4
572.637
572.918
572.979
559.054
569.599
572.223
572.829
572.958
565.632
571.402
572.634
572.917
572.979
560.091
569.825
572.267
572.837
572.959
565.671
571.411
572.636
572.917
572.979
560.115
569.842
572.268
572.838
572.959
420.792
457.71
454.32
416.37
408.992
415.414
406.631
414.603
436.865
454.139
440.815
456.081
278.156
278.679
279.839
281.722
284.473
288.246
278.591
279.132
280.326
282.244
284.985
288.653
277.828
277.667
278.381
278.273
279.61
279.627
281.623
281.887
284.531
285.116
288.322
288.975
293.188
299.374
306.996
316.149
325.05
330.9
293.325
298.99
305.537
312.485
318.65
322.492
277.663
276.956
276.009
274.881
273.64
278.136
277.356
276.312
275.07
273.704
279.182
278.241
276.983
275.488
273.846
280.879
279.675
278.07
276.165
274.076
283.355
281.763
279.649
277.148
274.409
286.743
284.613
281.799
278.484
274.863
278.056
277.289
276.262
275.038
273.693
278.544
277.701
276.574
275.233
273.759
279.621
278.611
277.263
275.662
273.905
281.348
280.069
278.367
276.349
274.138
283.812
282.145
279.936
277.326
274.47
287.102
284.911
282.021
278.621
274.909
277.368
276.706
275.819
274.762
273.599
277.222
276.583
275.726
274.704
273.58
277.867
277.128
276.14
274.962
273.667
277.769
277.046
276.077
274.923
273.654
278.975
278.066
276.851
275.406
273.818
278.991
278.08
276.862
275.413
273.82
280.791
279.601
278.014
276.131
274.064
281.029
279.803
278.168
276.227
274.097
283.409
281.811
279.686
277.172
274.417
283.937
282.257
280.024
277.382
274.489
286.815
284.677
281.849
278.516
274.873
287.403
285.174
282.224
278.748
274.952
291.16
288.313
284.581
280.211
275.448
296.65
292.88
288.003
282.333
276.169
303.337
298.391
292.115
284.891
277.044
311.209
304.795
296.885
287.893
278.095
318.612
310.703
301.293
290.736
279.143
323.38
314.477
304.118
292.588
279.846
291.276
288.406
284.65
280.253
275.463
296.311
292.6
287.795
282.205
276.126
302.082
297.375
291.365
284.423
276.882
308.138
302.346
295.073
286.74
277.68
313.437
306.657
298.289
288.766
278.389
316.715
309.316
300.277
290.028
278.837
278.231
278.911
280.252
282.357
285.389
289.52
278.67
279.376
280.755
282.889
285.884
289.836
277.902
277.743
278.613
278.513
280.028
280.065
282.281
282.592
285.503
286.164
289.742
290.561
294.858
301.362
309.125
318.063
326.361
331.363
294.782
300.639
307.214
313.948
319.647
322.845
277.731
277.014
276.053
274.909
273.649
278.346
277.535
276.449
275.156
273.733
279.557
278.56
277.227
275.641
273.898
281.456
280.167
278.446
276.401
274.156
284.189
282.476
280.195
277.492
274.527
287.904
285.608
282.564
278.967
275.027
278.128
277.35
276.308
275.068
273.703
278.765
277.89
276.718
275.323
273.79
280.01
278.943
277.517
275.822
273.959
281.934
280.569
278.75
276.59
274.221
284.631
282.845
280.473
277.664
274.585
288.181
285.835
282.733
279.07
275.062
277.435
276.763
275.863
274.79
273.609
277.291
276.641
275.77
274.732
273.589
278.077
277.307
276.276
275.048
273.696
277.986
277.231
276.218
275.012
273.684
279.355
278.39
277.099
275.561
273.871
279.389
278.419
277.121
275.575
273.876
281.388
280.111
278.405
276.376
274.148
281.67
280.35
278.586
276.489
274.186
284.294
282.568
280.266
277.537
274.542
284.891
283.073
280.651
277.776
274.623
288.11
285.787
282.703
279.054
275.057
288.851
286.415
283.18
279.352
275.158
292.688
289.627
285.596
280.852
275.668
298.478
294.463
289.232
283.114
276.437
305.309
300.114
293.466
285.756
277.343
313.005
306.383
298.147
288.712
278.382
319.859
311.821
302.193
291.33
279.354
323.825
314.879
304.444
292.806
279.924
292.609
289.552
285.534
280.813
275.654
297.825
293.907
288.809
282.848
276.347
303.629
298.72
292.414
285.093
277.113
309.496
303.535
296.008
287.341
277.888
314.369
307.479
298.939
289.187
278.536
317.047
309.61
300.51
290.18
278.89
363.2
345.076
301.01
294.56
297.885
294.494
299.322
368.914
366.741
345.015
356.957
323.786
335.694
317.149
321.331
314.756
362.788
336.549
319.92
315.272
323.738
318.257
309.462
308.417
307.311
303.23
312.771
309.161
361.321
339.174
349.434
328.753
322.186
335.79
310.53
303.463
313.929
344.934
329.233
315.515
301.158
284.403
333.973
322.557
310.256
296.944
281.841
298.186
294.235
289.069
283.014
276.403
292.433
289.422
285.447
280.761
275.637
295.428
291.95
287.359
281.95
276.04
292.383
289.388
285.425
280.748
275.632
296.703
293.011
288.154
282.444
276.208
352.164
335.461
320.219
303.964
285.478
350.736
334.113
318.597
301.924
283.253
335.532
324.43
311.563
297.275
281.534
344.029
329.092
314.549
298.837
281.923
318.13
310.647
301.287
290.587
278.986
328.069
318.532
307.066
294.19
280.246
312.456
306.065
297.904
288.481
278.258
316.085
309.023
300.087
289.826
278.715
310.385
304.379
296.654
287.704
277.992
347.175
331.727
317.542
302.292
284.911
328.61
318.999
307.616
294.825
280.671
314.811
307.971
299.333
289.398
278.588
310.759
304.65
296.87
287.875
278.068
317.996
310.524
301.262
290.67
279.071
313.296
306.702
298.408
288.863
278.423
305.627
300.395
293.686
285.897
277.392
304.763
299.714
293.182
285.571
277.274
303.832
298.972
292.631
285.22
277.149
300.199
295.94
290.358
283.812
276.672
308.627
302.926
295.579
287.05
277.774
305.439
300.286
293.61
285.833
277.361
344.635
329.361
315.742
301.307
284.616
329.821
319.548
308.049
295.382
281.107
338.313
325.678
312.797
298.634
282.411
321.962
313.592
303.571
292.249
279.707
316.59
309.343
300.389
290.15
278.897
327.893
318.415
307.229
294.661
280.648
306.592
301.208
294.298
286.274
277.519
300.387
296.084
290.462
283.878
276.696
309.569
303.664
296.135
287.423
277.915
279.37
291.728
303.155
313.191
321.259
327.392
482.221
476.204
452.437
458.294
466.534
457.492
442.812
432.234
501.892
517.6
495.391
509.444
485.956
477.315
497.569
472.157
467.292
444.205
448.902
459.13
451.176
436.227
427.183
491.603
502.822
485.939
495.734
477.171
469.198
485.432
458.162
454.628
432.716
436.133
448.322
441.916
426.591
419.003
475.932
486.668
471.432
481.098
464.743
458.055
472.78
443.697
441.114
420.698
423.284
436.128
430.645
415.816
409.331
461.097
472.449
457.506
467.905
452.106
445.734
460.588
433.213
431.14
411.946
414.112
426.857
422.145
407.725
401.834
449.88
462.025
446.84
458.399
442.524
436.932
452.066
426.11
424.288
405.975
407.928
420.483
416.4
402.09
396.643
442.507
456.359
439.742
452.839
436.194
431.251
446.519
402.412
399.324
425.15
429.469
395.051
389.757
418.134
409.574
379.923
359.578
379.039
361.32
375.404
374.904
364.061
398.13
395.26
419.212
422.958
391.274
386.356
413.016
405.108
375.367
355.841
374.638
357.718
371.242
371.185
360.216
391.329
388.81
410.366
413.368
385.292
380.811
405.247
398.46
370.726
351.281
369.934
352.958
366.869
366.735
355.221
382.959
380.785
400.394
402.825
377.525
373.077
396.112
389.813
364.007
345.673
363.323
347.127
360.554
360.346
349.355
376.315
374.353
392.888
395.009
371.441
367.248
389.065
383.302
358.323
341.553
357.727
342.629
355.447
355.156
344.829
371.594
369.775
387.697
389.646
367.248
363.532
384.144
378.822
354.724
338.773
354.244
339.807
352.2
352.071
342.186
538.351
554.996
527.027
547.181
511.545
537.284
484.88
515.393
484.499
508.644
508.351
531.986
522.819
543.249
532.996
551.215
502.581
481.937
523.016
493.198
474.08
452.612
494.468
462.511
546.457
553.993
559.576
563.684
535.464
544.962
552.712
558.75
535.943
520.259
512.959
502.595
532.13
546.624
542.761
542.446
503.662
507.933
518.741
517.821
472.641
476.157
549.912
552.129
524.097
530.374
559.218
562.034
559.024
567.373
566.853
570.661
551.755
564.478
563.163
569.178
537.737
558.436
549.599
564.238
558.345
567.656
561.738
568.862
467.216
455.011
474.894
457.672
435.18
424.357
443.183
427.24
502.81
486.722
495.572
483.859
480.378
458.97
481.845
458.805
448.676
428.758
450.154
428.714
507.964
488.091
509.422
488.037
527.445
555.589
515.118
546.817
520.624
551.502
511.55
543.463
532.267
557.937
516.864
548.584
533.804
558.799
517.042
549.38
552.169
538.514
563.512
553.507
541.748
528.174
559.282
547.952
526.659
514.142
552.145
540.068
451.819
414.592
484.152
510.62
543.326
408.817
445.862
478.017
502.894
532.996
414.397
448.318
478.977
506.312
536.866
514.152
492.971
519.095
498.862
507.911
488.309
516.994
496.672
498.699
480.429
514.13
494.133
398.416
385.513
436.382
422.723
467.007
451.954
490.796
474.157
513.17
494.601
402.811
388.755
438.028
426.648
468.89
456.703
495.079
480.803
517.272
501.193
442.223
436.437
440.902
435.66
407.58
388.459
407.71
387.911
471.561
469.589
472.928
469.439
438.564
434.76
438.531
434.994
407.013
388.042
407.157
388.37
468.931
468.71
468.903
469.04
499.959
497.906
522.941
520.103
499.99
495.982
522.138
516.927
498.723
497.878
523.078
521.101
497.428
497.124
521.985
520.146
470.569
453.67
445.008
473.646
455.42
446.432
467.477
450.347
441.334
471.696
452.883
443.445
459.98
442.798
433.69
469.133
448.961
438.773
371.74
362.057
357.385
406.914
393.251
385.949
434.241
417.436
408.068
453.795
435.39
425.64
468.366
445.915
434.336
373.531
361.522
355.63
412.758
397.853
389.731
439.927
421.418
410.866
459.375
437.179
424.872
471.528
445.974
432.366
406.028
397.068
411.782
402.904
438.283
422.733
449.086
430.546
381.323
358.58
382.491
360.497
382.715
361.376
384.584
363.433
384.254
380.311
383.657
378.143
364.88
368.484
407.124
409.976
436.185
439.058
387.596
392.045
387.57
390.266
371.581
374.788
336.457
318.638
341.75
321.9
339.123
319.25
344.306
322.941
343.435
320.095
350.437
324.928
354.319
327.992
356.2
329.855
379.468
369.986
387.064
373.555
405.464
395.019
413.151
398.386
366.153
352.405
358.884
348.922
391.397
375.561
393.261
376.186
417.859
400.214
419.517
400.498
370.245
354.461
372.209
355.266
346.191
322.385
335.246
316.966
339.612
318.5
332.106
314.705
350.194
325.293
337.157
318.435
352.363
327.279
338.015
319.245
320.111
309.345
312.196
305.223
322.48
312.105
312.591
306.022
326.959
318.089
313.627
308.211
360.288
383.713
342.961
330.09
313.65
378.643
355.605
336.48
324.308
310.085
383.435
360.211
341.709
327.294
311.94
300.734
293.022
298.577
291.646
303.747
295.829
299.923
293.047
309.62
301.353
302.551
295.636
368.203
356.073
345.746
334.462
328.989
319.381
317.186
308.316
305.709
298.675
371.784
357.127
349.576
336.079
332.906
321.388
319.954
309.581
307.665
299.873
353.9
336.07
357.134
338.247
376.805
356.859
379.449
357.871
339.173
323.629
336.173
321.347
359.828
339.653
360.563
340.293
381.292
358.462
381.785
358.962
341.853
325.23
342.604
325.815
323.414
310.424
309.367
299.697
321.766
308.694
308.57
299.014
324.856
311.69
309.906
299.976
326.364
312.419
310.824
300.838
285.198
281.442
279.978
280.76
277.785
276.782
288.141
283.924
282.255
282.134
279.006
277.852
293.563
288.811
286.842
284.334
280.607
279.177
344.185
336.279
332.604
324.217
317.839
315.074
310.361
304.717
302.465
299.314
293.593
291.119
285.991
281.512
279.732
343.104
333.136
328.764
323.808
315.298
311.628
310.452
303.076
300.019
298.653
292.283
289.841
285.11
280.848
279.185
304.413
295.046
288.996
284.64
305.828
295.567
289.125
284.589
304.519
295.136
289.097
284.73
306.354
295.845
289.344
284.773
304.511
295.216
289.349
285.017
306.76
296.114
289.693
285.091
308.113
296.791
289.825
285.029
309.243
297.48
290.143
285.178
305.881
295.957
289.778
285.256
304.102
295.558
289.855
285.678
304.132
295.213
289.58
285.372
303.065
295.033
289.635
285.686
307.316
296.649
289.993
285.274
304.96
296.04
290.091
285.812
308.443
297.281
290.312
285.492
305.669
296.484
290.381
286.063
302.111
294.252
288.871
284.845
299.406
293.356
288.715
285.163
302.138
294.297
288.958
284.945
299.637
293.462
288.782
285.234
302.283
294.407
289.135
285.155
300.28
293.732
288.938
285.369
302.144
294.465
289.315
285.448
300.8
293.983
289.132
285.568
301.936
294.53
289.463
285.754
297.238
292.704
288.428
285.723
295.982
292.381
288.326
285.904
297.709
292.88
288.521
285.795
296.504
292.572
288.414
285.96
298.561
293.209
288.669
285.891
297.389
292.909
288.557
286.05
299.603
293.641
288.92
286.058
298.406
293.327
288.763
286.182
300.607
294.14
289.229
286.244
299.274
293.772
289.001
286.339
301.995
295.052
289.703
286.521
300.543
294.691
289.575
286.728
301.353
294.614
289.46
286.371
299.931
294.242
289.28
286.524
302.547
295.458
289.913
286.661
301.122
295.138
289.853
286.932
303.109
295.859
290.181
286.87
301.721
295.577
290.15
287.158
280.951
278.516
276.837
275.798
275.305
280.947
278.521
276.841
275.801
275.306
281.001
278.541
276.85
275.805
275.31
281.012
278.554
276.858
275.811
275.313
281.067
278.571
276.865
275.814
275.316
281.085
278.592
276.878
275.822
275.321
281.174
278.642
276.906
275.839
275.333
281.3
278.714
276.947
275.862
275.349
281.151
278.616
276.89
275.828
275.325
281.235
278.643
276.901
275.835
275.33
281.122
278.593
276.876
275.82
275.32
281.195
278.618
276.888
275.826
275.324
281.23
278.661
276.915
275.843
275.336
281.31
278.684
276.924
275.848
275.339
281.351
278.729
276.952
275.865
275.351
281.417
278.742
276.956
275.867
275.352
280.969
278.514
276.834
275.796
275.303
280.99
278.513
276.832
275.795
275.302
281.008
278.532
276.843
275.801
275.307
281.02
278.527
276.839
275.799
275.305
281.068
278.56
276.857
275.809
275.312
281.071
278.551
276.851
275.806
275.31
281.135
278.587
276.871
275.817
275.317
281.127
278.579
276.866
275.814
275.315
281.171
278.603
276.879
275.821
275.32
526.574
523.43
526.238
523.118
526.108
523.156
526.915
524.081
529.67
526.887
534.878
535.254
533.337
532.724
535.512
536.256
535.704
536.313
563.636
570.994
572.546
572.898
572.974
555.644
568.801
572.048
572.79
572.949
563.675
571.013
572.552
572.9
572.975
555.747
568.847
572.058
572.794
572.95
563.773
571.049
572.562
572.902
572.975
555.907
568.905
572.074
572.798
572.951
564.115
571.136
572.582
572.907
572.976
556.353
569.023
572.102
572.804
572.952
564.847
571.293
572.616
572.914
572.978
557.289
569.234
572.147
572.814
572.954
565.531
571.386
572.631
572.916
572.978
559.571