/*--------------------------------*- C++ -*----------------------------------*\
  =========                 |
  \\      /  F ield         | OpenFOAM: The Open Source CFD Toolbox
   \\    /   O peration     | Website:  https://openfoam.org
    \\  /    A nd           | Version:  11
     \\/     M anipulation  |
\*---------------------------------------------------------------------------*/
FoamFile
{
    format      ascii;
    class       volScalarField;
    location    "4.5";
    object      epsilon;
}
// * * * * * * * * * * * * * * * * * * * * * * * * * * * * * * * * * * * * * //

dimensions      [0 2 -3 0 0 0 0];

internalField   nonuniform List<scalar> 
700
(
7.31434e-05
7.31434e-05
7.31434e-05
7.31434e-05
7.31434e-05
7.31434e-05
7.31434e-05
7.31434e-05
7.31434e-05
7.31434e-05
7.31434e-05
7.31434e-05
7.31434e-05
7.31434e-05
7.31434e-05
7.31434e-05
7.31434e-05
7.31434e-05
7.31434e-05
7.31434e-05
7.31434e-05
7.31434e-05
7.31434e-05
7.31434e-05
7.31434e-05
7.31434e-05
7.31434e-05
7.31434e-05
7.31434e-05
7.31434e-05
7.31434e-05
7.31434e-05
7.31434e-05
7.31434e-05
7.31434e-05
7.31434e-05
7.31434e-05
7.31434e-05
7.31434e-05
7.31434e-05
7.31434e-05
7.31434e-05
7.31434e-05
7.31434e-05
7.31434e-05
7.31434e-05
7.31434e-05
7.31434e-05
7.31434e-05
7.31434e-05
7.31434e-05
7.31434e-05
7.31434e-05
7.31434e-05
7.31434e-05
7.31434e-05
7.31434e-05
7.31434e-05
7.31434e-05
7.31434e-05
7.31434e-05
7.31434e-05
7.31434e-05
7.31434e-05
7.31434e-05
7.31434e-05
7.31434e-05
7.31434e-05
7.31434e-05
7.31434e-05
7.31447e-05
7.31442e-05
7.31437e-05
7.31435e-05
7.31434e-05
7.31434e-05
7.31434e-05
7.31434e-05
7.31432e-05
7.31429e-05
7.31832e-05
7.31643e-05
7.3151e-05
7.31456e-05
7.31441e-05
7.31439e-05
7.31438e-05
7.31423e-05
7.31371e-05
7.31278e-05
7.40608e-05
7.35534e-05
7.32779e-05
7.31782e-05
7.31527e-05
7.31494e-05
7.31464e-05
7.31228e-05
7.30356e-05
7.27954e-05
7.95415e-05
7.59517e-05
7.40306e-05
7.33763e-05
7.3192e-05
7.31418e-05
7.30993e-05
7.30269e-05
7.29228e-05
7.29145e-05
7.7881e-05
7.62091e-05
7.44519e-05
7.36203e-05
7.32946e-05
7.31872e-05
7.31466e-05
7.30991e-05
7.30109e-05
7.29253e-05
7.59521e-05
7.57077e-05
7.45348e-05
7.38092e-05
7.34287e-05
7.32571e-05
7.31906e-05
7.31608e-05
7.31227e-05
7.30622e-05
7.36783e-05
7.45764e-05
7.41583e-05
7.3772e-05
7.34931e-05
7.33213e-05
7.32296e-05
7.31867e-05
7.31638e-05
7.31376e-05
7.11959e-05
7.28962e-05
7.32614e-05
7.33607e-05
7.33417e-05
7.32863e-05
7.32332e-05
7.31955e-05
7.31725e-05
7.31568e-05
6.89258e-05
7.10162e-05
7.20176e-05
7.25997e-05
7.29122e-05
7.3064e-05
7.31282e-05
7.31498e-05
7.31536e-05
7.31515e-05
6.73912e-05
6.95277e-05
7.09013e-05
7.18133e-05
7.23911e-05
7.27389e-05
7.29372e-05
7.30436e-05
7.30972e-05
7.31221e-05
6.69975e-05
6.89915e-05
7.0452e-05
7.1464e-05
7.21374e-05
7.25662e-05
7.2827e-05
7.29778e-05
7.30601e-05
7.31005e-05
6.79433e-05
6.96718e-05
7.09281e-05
7.17848e-05
7.23466e-05
7.26997e-05
7.2913e-05
7.30387e-05
7.31141e-05
7.31645e-05
7.04403e-05
7.14417e-05
7.20951e-05
7.25355e-05
7.28172e-05
7.29914e-05
7.31039e-05
7.31946e-05
7.3301e-05
7.34585e-05
7.27886e-05
7.26596e-05
7.27678e-05
7.29055e-05
7.3014e-05
7.30879e-05
7.31387e-05
7.31803e-05
7.32228e-05
7.32645e-05
7.30021e-05
7.29788e-05
7.30027e-05
7.30464e-05
7.30877e-05
7.31193e-05
7.31426e-05
7.31615e-05
7.31787e-05
7.31921e-05
7.31013e-05
7.30958e-05
7.30999e-05
7.31113e-05
7.31241e-05
7.31353e-05
7.31443e-05
7.31518e-05
7.31582e-05
7.31625e-05
7.31364e-05
7.31343e-05
7.31339e-05
7.31356e-05
7.31385e-05
7.31416e-05
7.31445e-05
7.31471e-05
7.31492e-05
7.31506e-05
7.31451e-05
7.31441e-05
7.31432e-05
7.31428e-05
7.3143e-05
7.31435e-05
7.31442e-05
7.31449e-05
7.31456e-05
7.3146e-05
7.31457e-05
7.31452e-05
7.31446e-05
7.31441e-05
7.31438e-05
7.31438e-05
7.31438e-05
7.3144e-05
7.31442e-05
7.31443e-05
7.31448e-05
7.31445e-05
7.31442e-05
7.3144e-05
7.31438e-05
7.31436e-05
7.31436e-05
7.31436e-05
7.31437e-05
7.31437e-05
7.3144e-05
7.31439e-05
7.31438e-05
7.31437e-05
7.31436e-05
7.31435e-05
7.31435e-05
7.31435e-05
7.31435e-05
7.31435e-05
7.31437e-05
7.31436e-05
7.31436e-05
7.31435e-05
7.31435e-05
7.31435e-05
7.31435e-05
7.31434e-05
7.31434e-05
7.31434e-05
7.31435e-05
7.31435e-05
7.31435e-05
7.31435e-05
7.31434e-05
7.31434e-05
7.31434e-05
7.31434e-05
7.31434e-05
7.31434e-05
7.31434e-05
7.31434e-05
7.31434e-05
7.31434e-05
7.31434e-05
7.31434e-05
7.31434e-05
7.31434e-05
7.31434e-05
7.31434e-05
7.31434e-05
7.31434e-05
7.31434e-05
7.31434e-05
7.31434e-05
7.31434e-05
7.31434e-05
7.31434e-05
7.31434e-05
7.31434e-05
7.31434e-05
7.31434e-05
7.31434e-05
7.31434e-05
7.31434e-05
7.31434e-05
7.31434e-05
7.31434e-05
7.31434e-05
7.31434e-05
7.31434e-05
7.31434e-05
7.31434e-05
7.31434e-05
7.31434e-05
7.31434e-05
7.31434e-05
7.31434e-05
7.31434e-05
7.31434e-05
7.31434e-05
7.31434e-05
7.31434e-05
7.31434e-05
7.31434e-05
7.31434e-05
7.31434e-05
7.31434e-05
7.31434e-05
7.31434e-05
7.31434e-05
7.31434e-05
7.31434e-05
7.31434e-05
7.31434e-05
7.31434e-05
7.31434e-05
7.31434e-05
7.31434e-05
7.31434e-05
7.31434e-05
7.31434e-05
7.31434e-05
7.31434e-05
7.31434e-05
7.31434e-05
7.31434e-05
7.31434e-05
7.31434e-05
7.31434e-05
7.31434e-05
7.31434e-05
7.31434e-05
7.31434e-05
7.31434e-05
7.31434e-05
7.31434e-05
7.31434e-05
7.31434e-05
7.31434e-05
7.31434e-05
7.31434e-05
7.31434e-05
7.31434e-05
7.31434e-05
7.31434e-05
7.31434e-05
7.31434e-05
7.31434e-05
7.31434e-05
7.31434e-05
7.31434e-05
7.31434e-05
7.31434e-05
7.31434e-05
7.31434e-05
7.31434e-05
7.31434e-05
7.31434e-05
7.31434e-05
7.33895e-05
7.34491e-05
7.35164e-05
7.35803e-05
7.36283e-05
7.36553e-05
7.36616e-05
7.36417e-05
7.36063e-05
7.35664e-05
7.32634e-05
7.33182e-05
7.33748e-05
7.34132e-05
7.34204e-05
7.33979e-05
7.33544e-05
7.33006e-05
7.32469e-05
7.31971e-05
7.32071e-05
7.3239e-05
7.32677e-05
7.32773e-05
7.32628e-05
7.32315e-05
7.31944e-05
7.31603e-05
7.31336e-05
7.31148e-05
7.31844e-05
7.31999e-05
7.3209e-05
7.3205e-05
7.3189e-05
7.31683e-05
7.31498e-05
7.31371e-05
7.31301e-05
7.31275e-05
7.31857e-05
7.31938e-05
7.31905e-05
7.31792e-05
7.31648e-05
7.31522e-05
7.3144e-05
7.31404e-05
7.31405e-05
7.31443e-05
7.3212e-05
7.3225e-05
7.32099e-05
7.3187e-05
7.31669e-05
7.31532e-05
7.31457e-05
7.31425e-05
7.31425e-05
7.31453e-05
7.32747e-05
7.33175e-05
7.32857e-05
7.32361e-05
7.31947e-05
7.31668e-05
7.315e-05
7.31399e-05
7.3132e-05
7.31219e-05
7.33973e-05
7.35253e-05
7.3469e-05
7.33659e-05
7.32758e-05
7.32101e-05
7.31624e-05
7.31195e-05
7.30652e-05
7.29933e-05
7.36216e-05
7.39438e-05
7.38537e-05
7.36615e-05
7.34838e-05
7.33391e-05
7.32053e-05
7.30323e-05
7.27549e-05
7.24014e-05
7.38774e-05
7.47162e-05
7.46933e-05
7.44798e-05
7.42646e-05
7.40659e-05
7.38155e-05
7.33268e-05
7.22118e-05
6.98368e-05
7.32752e-05
7.322e-05
7.31843e-05
7.31668e-05
7.31598e-05
7.31564e-05
7.3146e-05
7.31015e-05
7.2946e-05
7.24512e-05
7.31937e-05
7.31786e-05
7.31638e-05
7.31529e-05
7.31436e-05
7.31307e-05
7.31054e-05
7.30533e-05
7.29554e-05
7.2816e-05
7.31626e-05
7.31579e-05
7.31518e-05
7.31456e-05
7.31382e-05
7.31267e-05
7.31067e-05
7.30736e-05
7.30268e-05
7.29816e-05
7.31505e-05
7.31488e-05
7.31463e-05
7.31431e-05
7.31385e-05
7.31313e-05
7.31196e-05
7.31025e-05
7.30821e-05
7.3066e-05
7.31459e-05
7.31453e-05
7.31442e-05
7.31427e-05
7.31403e-05
7.31366e-05
7.31308e-05
7.31231e-05
7.31148e-05
7.31089e-05
7.31442e-05
7.3144e-05
7.31436e-05
7.31429e-05
7.31419e-05
7.31402e-05
7.31377e-05
7.31346e-05
7.31313e-05
7.31292e-05
7.31437e-05
7.31436e-05
7.31434e-05
7.31432e-05
7.31427e-05
7.31421e-05
7.31411e-05
7.31399e-05
7.31388e-05
7.3138e-05
7.31435e-05
7.31435e-05
7.31434e-05
7.31433e-05
7.31432e-05
7.31429e-05
7.31426e-05
7.31422e-05
7.31418e-05
7.31415e-05
7.31434e-05
7.31434e-05
7.31434e-05
7.31434e-05
7.31433e-05
7.31433e-05
7.31431e-05
7.3143e-05
7.31429e-05
7.31428e-05
7.31434e-05
7.31434e-05
7.31434e-05
7.31434e-05
7.31434e-05
7.31434e-05
7.31433e-05
7.31433e-05
7.31432e-05
7.31432e-05
7.31434e-05
7.31434e-05
7.31434e-05
7.31434e-05
7.31434e-05
7.31434e-05
7.31434e-05
7.31434e-05
7.31434e-05
7.31434e-05
7.31434e-05
7.31434e-05
7.31434e-05
7.31434e-05
7.31434e-05
7.31434e-05
7.31434e-05
7.31434e-05
7.31434e-05
7.31434e-05
7.31434e-05
7.31434e-05
7.31434e-05
7.31434e-05
7.31434e-05
7.31434e-05
7.31434e-05
7.31434e-05
7.31434e-05
7.31434e-05
7.31434e-05
7.31434e-05
7.31434e-05
7.31434e-05
7.31434e-05
7.31434e-05
7.31434e-05
7.31434e-05
7.31434e-05
7.31434e-05
7.31434e-05
7.31434e-05
7.31434e-05
7.31434e-05
7.31434e-05
7.31434e-05
7.31434e-05
7.31434e-05
7.31434e-05
7.31434e-05
7.31434e-05
7.31434e-05
7.31434e-05
7.31434e-05
7.31434e-05
7.31434e-05
7.31434e-05
7.31434e-05
7.31434e-05
7.31434e-05
7.31434e-05
7.31434e-05
7.31434e-05
7.31434e-05
7.31434e-05
7.31434e-05
7.31434e-05
7.31434e-05
7.31434e-05
7.31434e-05
7.31434e-05
7.31434e-05
7.31434e-05
7.31434e-05
7.31434e-05
7.31434e-05
7.31434e-05
7.31434e-05
7.31434e-05
7.31434e-05
7.31434e-05
7.31434e-05
7.31434e-05
7.31434e-05
7.31434e-05
7.31434e-05
7.31434e-05
7.31434e-05
7.31434e-05
7.31434e-05
7.31434e-05
7.31434e-05
7.31434e-05
7.31434e-05
7.31434e-05
7.31434e-05
7.31434e-05
7.31434e-05
7.31434e-05
7.31434e-05
)
;

boundaryField
{
    defaultFaces
    {
        type            empty;
    }
}


// ************************************************************************* //
