/*--------------------------------*- C++ -*----------------------------------*\
  =========                 |
  \\      /  F ield         | OpenFOAM: The Open Source CFD Toolbox
   \\    /   O peration     | Website:  https://openfoam.org
    \\  /    A nd           | Version:  11
     \\/     M anipulation  |
\*---------------------------------------------------------------------------*/
FoamFile
{
    format      ascii;
    class       volScalarField;
    location    "4.5";
    object      k;
}
// * * * * * * * * * * * * * * * * * * * * * * * * * * * * * * * * * * * * * //

dimensions      [0 2 -2 0 0 0 0];

internalField   nonuniform List<scalar> 
700
(
0.000340068
0.000340068
0.000340068
0.000340068
0.000340068
0.000340068
0.000340068
0.000340068
0.000340068
0.000340068
0.000340068
0.000340068
0.000340068
0.000340068
0.000340068
0.000340068
0.000340068
0.000340068
0.000340068
0.000340068
0.000340068
0.000340068
0.000340068
0.000340068
0.000340068
0.000340068
0.000340068
0.000340068
0.000340068
0.000340068
0.000340068
0.000340068
0.000340068
0.000340068
0.000340068
0.000340068
0.000340068
0.000340068
0.000340068
0.000340068
0.000340068
0.000340068
0.000340068
0.000340068
0.000340068
0.000340068
0.000340068
0.000340068
0.000340068
0.000340068
0.000340068
0.000340068
0.000340068
0.000340068
0.000340068
0.000340068
0.000340068
0.000340068
0.000340068
0.000340068
0.000340068
0.000340068
0.000340068
0.000340068
0.000340068
0.000340068
0.000340068
0.000340068
0.000340067
0.000340067
0.000340076
0.000340072
0.00034007
0.000340068
0.000340068
0.000340068
0.000340068
0.000340067
0.000340066
0.000340064
0.000340296
0.000340193
0.000340116
0.000340082
0.000340072
0.00034007
0.000340068
0.000340059
0.000340029
0.00033998
0.000344888
0.000342341
0.000340865
0.00034029
0.000340126
0.000340093
0.000340059
0.000339913
0.00033945
0.000338282
0.000371633
0.000354425
0.000344887
0.000341434
0.000340365
0.000340016
0.000339728
0.000339306
0.000338748
0.000338656
0.00036373
0.000355696
0.000347054
0.000342767
0.000340982
0.000340328
0.000340036
0.000339726
0.00033923
0.000338756
0.000354079
0.00035299
0.000347362
0.000343728
0.000341728
0.000340768
0.000340353
0.000340133
0.00033988
0.000339522
0.000342675
0.000347074
0.000345223
0.000343399
0.000342011
0.000341113
0.000340604
0.00034034
0.000340179
0.000340002
0.000330387
0.000338541
0.00034047
0.00034109
0.000341082
0.000340845
0.000340587
0.000340388
0.000340254
0.000340152
0.000319288
0.000329194
0.000334099
0.000337049
0.000338703
0.000339551
0.000339938
0.000340085
0.000340123
0.000340117
0.000311865
0.000321904
0.000328494
0.000332984
0.000335917
0.000337748
0.000338834
0.000339446
0.00033977
0.00033993
0.000310015
0.000319338
0.000326287
0.000331215
0.000334589
0.00033681
0.000338213
0.00033906
0.000339546
0.000339808
0.000314655
0.000322731
0.000328706
0.000332882
0.000335705
0.000337541
0.000338692
0.000339392
0.000339815
0.000340082
0.000326684
0.000331393
0.000334547
0.000336743
0.000338199
0.000339126
0.000339719
0.000340146
0.000340555
0.000341073
0.000337922
0.000337371
0.000337954
0.000338689
0.000339282
0.000339694
0.000339969
0.00034017
0.000340341
0.000340487
0.000339129
0.000339048
0.000339206
0.000339463
0.000339706
0.000339893
0.000340026
0.000340124
0.0003402
0.000340252
0.000339735
0.000339723
0.000339765
0.000339844
0.000339929
0.000340001
0.000340056
0.000340098
0.000340129
0.000340147
0.000339979
0.000339975
0.000339982
0.000340001
0.000340025
0.000340048
0.000340067
0.000340083
0.000340094
0.000340101
0.000340057
0.000340054
0.000340053
0.000340055
0.000340059
0.000340065
0.00034007
0.000340075
0.000340079
0.000340081
0.000340074
0.000340072
0.00034007
0.000340069
0.000340068
0.000340069
0.00034007
0.000340071
0.000340072
0.000340072
0.000340074
0.000340073
0.000340071
0.00034007
0.000340069
0.000340069
0.000340069
0.000340069
0.000340069
0.000340069
0.000340071
0.00034007
0.00034007
0.000340069
0.000340069
0.000340068
0.000340068
0.000340068
0.000340068
0.000340068
0.000340069
0.000340069
0.000340069
0.000340068
0.000340068
0.000340068
0.000340068
0.000340068
0.000340068
0.000340068
0.000340068
0.000340068
0.000340068
0.000340068
0.000340068
0.000340068
0.000340068
0.000340068
0.000340068
0.000340068
0.000340068
0.000340068
0.000340068
0.000340068
0.000340068
0.000340068
0.000340068
0.000340068
0.000340068
0.000340068
0.000340068
0.000340068
0.000340068
0.000340068
0.000340068
0.000340068
0.000340068
0.000340068
0.000340068
0.000340068
0.000340068
0.000340068
0.000340068
0.000340068
0.000340068
0.000340068
0.000340068
0.000340068
0.000340068
0.000340068
0.000340068
0.000340068
0.000340068
0.000340068
0.000340068
0.000340068
0.000340068
0.000340068
0.000340068
0.000340068
0.000340068
0.000340068
0.000340068
0.000340068
0.000340068
0.000340068
0.000340068
0.000340068
0.000340068
0.000340068
0.000340068
0.000340068
0.000340068
0.000340068
0.000340068
0.000340068
0.000340068
0.000340068
0.000340068
0.000340068
0.000340068
0.000340068
0.000340068
0.000340068
0.000340068
0.000340068
0.000340068
0.000340068
0.000340068
0.000340068
0.000340068
0.000340068
0.000340068
0.000340068
0.000340068
0.000340068
0.000340068
0.000340068
0.000340068
0.000340068
0.000340068
0.000340068
0.000340068
0.000340068
0.000340068
0.000340068
0.000340068
0.000340068
0.000340068
0.000340068
0.000340068
0.000340068
0.000340068
0.000340068
0.000340068
0.000340068
0.000340068
0.000340068
0.000340068
0.000340068
0.000340879
0.000341059
0.000341261
0.00034145
0.00034159
0.000341667
0.000341682
0.000341624
0.000341518
0.000341396
0.000340497
0.000340667
0.000340838
0.000340952
0.000340968
0.000340893
0.000340752
0.000340577
0.000340397
0.000340224
0.000340326
0.000340429
0.000340517
0.000340542
0.000340488
0.000340378
0.000340247
0.000340118
0.000340007
0.000339913
0.000340266
0.000340319
0.000340344
0.000340321
0.000340255
0.000340174
0.000340098
0.000340039
0.000339998
0.000339973
0.000340301
0.000340337
0.000340313
0.000340254
0.000340182
0.000340121
0.000340078
0.000340056
0.000340054
0.000340074
0.000340454
0.000340529
0.000340453
0.000340329
0.000340217
0.000340137
0.00034009
0.000340069
0.000340066
0.000340081
0.000340784
0.000341025
0.000340876
0.000340616
0.000340387
0.000340226
0.000340123
0.000340055
0.000339997
0.000339923
0.0003414
0.00034208
0.000341834
0.000341318
0.000340843
0.000340482
0.000340206
0.000339944
0.000339612
0.000339195
0.000342487
0.000344121
0.000343749
0.000342823
0.00034193
0.000341175
0.000340447
0.000339488
0.00033801
0.000336252
0.000343703
0.000347778
0.000347746
0.000346733
0.000345665
0.000344642
0.000343314
0.000340777
0.000335299
0.000324201
0.000340526
0.000340354
0.000340239
0.000340182
0.000340164
0.00034016
0.000340125
0.000339933
0.000339223
0.000336931
0.000340259
0.000340209
0.000340156
0.000340113
0.000340073
0.000340013
0.000339896
0.000339654
0.000339199
0.000338551
0.000340148
0.00034013
0.000340105
0.000340077
0.00034004
0.000339981
0.000339882
0.000339722
0.000339499
0.000339286
0.0003401
0.000340093
0.000340081
0.000340064
0.000340039
0.00034
0.000339939
0.000339852
0.000339751
0.000339673
0.00034008
0.000340077
0.000340071
0.000340062
0.000340048
0.000340027
0.000339995
0.000339954
0.000339911
0.00033988
0.000340072
0.000340071
0.000340068
0.000340064
0.000340057
0.000340047
0.000340033
0.000340015
0.000339997
0.000339986
0.000340069
0.000340068
0.000340067
0.000340066
0.000340063
0.000340059
0.000340053
0.000340045
0.000340039
0.000340034
0.000340068
0.000340068
0.000340067
0.000340067
0.000340066
0.000340064
0.000340062
0.000340059
0.000340057
0.000340055
0.000340068
0.000340068
0.000340068
0.000340067
0.000340067
0.000340066
0.000340066
0.000340065
0.000340064
0.000340063
0.000340068
0.000340068
0.000340068
0.000340067
0.000340067
0.000340067
0.000340067
0.000340066
0.000340066
0.000340066
0.000340068
0.000340068
0.000340068
0.000340068
0.000340068
0.000340068
0.000340068
0.000340068
0.000340068
0.000340068
0.000340068
0.000340068
0.000340068
0.000340068
0.000340068
0.000340068
0.000340068
0.000340068
0.000340068
0.000340068
0.000340068
0.000340068
0.000340068
0.000340068
0.000340068
0.000340068
0.000340068
0.000340068
0.000340068
0.000340068
0.000340068
0.000340068
0.000340068
0.000340068
0.000340068
0.000340068
0.000340068
0.000340068
0.000340068
0.000340068
0.000340068
0.000340068
0.000340068
0.000340068
0.000340068
0.000340068
0.000340068
0.000340068
0.000340068
0.000340068
0.000340068
0.000340068
0.000340068
0.000340068
0.000340068
0.000340068
0.000340068
0.000340068
0.000340068
0.000340068
0.000340068
0.000340068
0.000340068
0.000340068
0.000340068
0.000340068
0.000340068
0.000340068
0.000340068
0.000340068
0.000340068
0.000340068
0.000340068
0.000340068
0.000340068
0.000340068
0.000340068
0.000340068
0.000340068
0.000340068
0.000340068
0.000340068
0.000340068
0.000340068
0.000340068
0.000340068
0.000340068
0.000340068
0.000340068
0.000340068
0.000340068
0.000340068
0.000340068
0.000340068
0.000340068
0.000340068
0.000340068
0.000340068
0.000340068
0.000340068
)
;

boundaryField
{
    defaultFaces
    {
        type            empty;
    }
}


// ************************************************************************* //
