/*--------------------------------*- C++ -*----------------------------------*\
  =========                 |
  \\      /  F ield         | OpenFOAM: The Open Source CFD Toolbox
   \\    /   O peration     | Website:  https://openfoam.org
    \\  /    A nd           | Version:  11
     \\/     M anipulation  |
\*---------------------------------------------------------------------------*/
FoamFile
{
    format      ascii;
    class       volScalarField;
    location    "4.5";
    object      nut;
}
// * * * * * * * * * * * * * * * * * * * * * * * * * * * * * * * * * * * * * //

dimensions      [0 2 -1 0 0 0 0];

internalField   nonuniform List<scalar> 
700
(
0.000142298
0.000142298
0.000142298
0.000142298
0.000142298
0.000142298
0.000142298
0.000142298
0.000142298
0.000142298
0.000142298
0.000142298
0.000142298
0.000142298
0.000142298
0.000142298
0.000142298
0.000142298
0.000142298
0.000142298
0.000142298
0.000142298
0.000142298
0.000142298
0.000142298
0.000142298
0.000142298
0.000142298
0.000142298
0.000142298
0.000142298
0.000142298
0.000142298
0.000142298
0.000142298
0.000142298
0.000142298
0.000142298
0.000142298
0.000142298
0.000142298
0.000142298
0.000142298
0.000142298
0.000142298
0.000142298
0.000142298
0.000142298
0.000142298
0.000142298
0.000142298
0.000142298
0.000142298
0.000142298
0.000142298
0.000142298
0.000142298
0.000142298
0.000142298
0.000142298
0.000142298
0.000142298
0.000142298
0.000142298
0.000142298
0.000142298
0.000142298
0.000142298
0.000142298
0.000142298
0.000142302
0.0001423
0.000142299
0.000142298
0.000142298
0.000142298
0.000142298
0.000142297
0.000142297
0.000142296
0.000142411
0.000142362
0.000142324
0.000142306
0.0001423
0.000142299
0.000142298
0.000142292
0.000142278
0.000142255
0.000144547
0.000143402
0.000142704
0.000142416
0.000142329
0.000142307
0.000142285
0.000142208
0.000141991
0.00014148
0.000156271
0.000148852
0.000144606
0.000142988
0.000142452
0.000142258
0.000142099
0.000141887
0.000141623
0.000141562
0.000152887
0.000149415
0.0001456
0.00014363
0.000142769
0.00014243
0.000142265
0.000142098
0.000141855
0.000141625
0.00014856
0.000148124
0.000145696
0.000144066
0.000143132
0.000142663
0.000142444
0.000142318
0.000142181
0.000141999
0.00014344
0.000145374
0.000144637
0.000143863
0.000143244
0.000142826
0.000142579
0.000142442
0.000142351
0.000142254
0.000137985
0.000141502
0.000142405
0.000142731
0.000142761
0.00014267
0.000142558
0.000142464
0.000142397
0.000142342
0.000133115
0.000137338
0.000139494
0.00014083
0.000141605
0.00014202
0.000142219
0.0001423
0.000142324
0.000142323
0.000129889
0.000134133
0.000136976
0.000138958
0.000140288
0.000141143
0.000141667
0.000141971
0.000142138
0.000142224
0.000129107
0.00013303
0.000136003
0.000138158
0.000139671
0.000140695
0.000141361
0.000141777
0.000142024
0.000142164
0.000131149
0.000134545
0.000137101
0.000138929
0.000140197
0.000141047
0.000141595
0.000141936
0.000142143
0.000142269
0.000136357
0.000138349
0.000139718
0.000140698
0.000141368
0.000141806
0.000142083
0.000142264
0.000142399
0.000142526
0.000141193
0.000140982
0.00014126
0.000141607
0.000141892
0.000142093
0.000142225
0.000142311
0.000142372
0.000142413
0.000141787
0.000141765
0.00014185
0.000141981
0.000142104
0.000142199
0.000142265
0.00014231
0.00014234
0.000142357
0.000142101
0.000142102
0.000142129
0.000142173
0.000142219
0.000142258
0.000142286
0.000142306
0.00014232
0.000142327
0.000142237
0.000142238
0.000142245
0.000142257
0.000142272
0.000142285
0.000142295
0.000142303
0.000142309
0.000142311
0.000142286
0.000142285
0.000142286
0.000142288
0.000142292
0.000142295
0.000142298
0.000142301
0.000142303
0.000142304
0.000142299
0.000142298
0.000142297
0.000142297
0.000142297
0.000142298
0.000142298
0.000142299
0.0001423
0.0001423
0.0001423
0.0001423
0.000142299
0.000142299
0.000142298
0.000142298
0.000142298
0.000142298
0.000142298
0.000142298
0.000142299
0.000142299
0.000142299
0.000142298
0.000142298
0.000142298
0.000142298
0.000142298
0.000142298
0.000142298
0.000142298
0.000142298
0.000142298
0.000142298
0.000142298
0.000142298
0.000142298
0.000142298
0.000142298
0.000142298
0.000142298
0.000142298
0.000142298
0.000142298
0.000142298
0.000142298
0.000142298
0.000142298
0.000142298
0.000142298
0.000142298
0.000142298
0.000142298
0.000142298
0.000142298
0.000142298
0.000142298
0.000142298
0.000142298
0.000142298
0.000142298
0.000142298
0.000142298
0.000142298
0.000142298
0.000142298
0.000142298
0.000142298
0.000142298
0.000142298
0.000142298
0.000142298
0.000142298
0.000142298
0.000142298
0.000142298
0.000142298
0.000142298
0.000142298
0.000142298
0.000142298
0.000142298
0.000142298
0.000142298
0.000142298
0.000142298
0.000142298
0.000142298
0.000142298
0.000142298
0.000142298
0.000142298
0.000142298
0.000142298
0.000142298
0.000142298
0.000142298
0.000142298
0.000142298
0.000142298
0.000142298
0.000142298
0.000142298
0.000142298
0.000142298
0.000142298
0.000142298
0.000142298
0.000142298
0.000142298
0.000142298
0.000142298
0.000142298
0.000142298
0.000142298
0.000142298
0.000142298
0.000142298
0.000142298
0.000142298
0.000142298
0.000142298
0.000142298
0.000142298
0.000142298
0.000142298
0.000142298
0.000142298
0.000142298
0.000142298
0.000142298
0.000142298
0.000142298
0.000142298
0.000142298
0.000142298
0.000142298
0.000142298
0.000142298
0.000142298
0.000142298
0.000142298
0.000142298
0.000142298
0.000142298
0.000142298
0.000142298
0.000142298
0.000142298
0.000142298
0.000142498
0.000142533
0.000142571
0.000142605
0.000142629
0.000142641
0.000142641
0.000142631
0.000142612
0.000142587
0.000142424
0.000142459
0.000142493
0.000142513
0.000142513
0.000142493
0.00014246
0.000142418
0.000142372
0.000142324
0.00014239
0.000142414
0.000142432
0.000142434
0.000142417
0.000142386
0.000142348
0.000142307
0.000142266
0.000142224
0.000142384
0.000142399
0.000142401
0.000142389
0.000142366
0.000142338
0.00014231
0.000142286
0.000142265
0.00014225
0.000142411
0.000142425
0.000142412
0.000142384
0.000142352
0.000142325
0.000142305
0.000142294
0.000142292
0.000142301
0.000142488
0.000142525
0.000142491
0.000142431
0.000142377
0.000142337
0.000142312
0.0001423
0.000142298
0.000142305
0.000142642
0.00014276
0.000142697
0.000142576
0.000142465
0.000142384
0.000142331
0.000142294
0.000142261
0.000142218
0.000142919
0.000143239
0.000143142
0.000142911
0.000142689
0.000142515
0.000142377
0.000142241
0.000142068
0.000141859
0.000143392
0.000144133
0.000143997
0.000143596
0.000143194
0.000142844
0.000142495
0.000142029
0.000141332
0.000140548
0.000143912
0.000145691
0.000145709
0.000145276
0.000144801
0.000144331
0.000143707
0.000142535
0.000140119
0.000135453
0.000142425
0.000142389
0.000142362
0.000142348
0.000142346
0.00014235
0.000142341
0.000142266
0.000141975
0.00014102
0.000142361
0.000142348
0.000142332
0.000142317
0.000142301
0.000142277
0.000142228
0.000142127
0.000141937
0.000141666
0.000142328
0.000142322
0.000142313
0.000142301
0.000142284
0.000142258
0.000142214
0.000142144
0.000142049
0.000141958
0.000142311
0.000142308
0.000142303
0.000142295
0.000142283
0.000142265
0.000142236
0.000142197
0.000142152
0.000142118
0.000142303
0.000142302
0.000142299
0.000142294
0.000142288
0.000142277
0.000142262
0.000142242
0.000142222
0.000142208
0.0001423
0.000142299
0.000142298
0.000142295
0.000142292
0.000142287
0.000142279
0.000142271
0.000142262
0.000142257
0.000142298
0.000142298
0.000142297
0.000142297
0.000142295
0.000142293
0.00014229
0.000142286
0.000142283
0.00014228
0.000142298
0.000142298
0.000142298
0.000142297
0.000142297
0.000142296
0.000142294
0.000142293
0.000142292
0.000142291
0.000142298
0.000142298
0.000142298
0.000142297
0.000142297
0.000142297
0.000142296
0.000142296
0.000142296
0.000142295
0.000142298
0.000142298
0.000142298
0.000142298
0.000142297
0.000142297
0.000142297
0.000142297
0.000142297
0.000142297
0.000142298
0.000142298
0.000142298
0.000142298
0.000142298
0.000142298
0.000142298
0.000142298
0.000142298
0.000142298
0.000142298
0.000142298
0.000142298
0.000142298
0.000142298
0.000142298
0.000142298
0.000142298
0.000142298
0.000142298
0.000142298
0.000142298
0.000142298
0.000142298
0.000142298
0.000142298
0.000142298
0.000142298
0.000142298
0.000142298
0.000142298
0.000142298
0.000142298
0.000142298
0.000142298
0.000142298
0.000142298
0.000142298
0.000142298
0.000142298
0.000142298
0.000142298
0.000142298
0.000142298
0.000142298
0.000142298
0.000142298
0.000142298
0.000142298
0.000142298
0.000142298
0.000142298
0.000142298
0.000142298
0.000142298
0.000142298
0.000142298
0.000142298
0.000142298
0.000142298
0.000142298
0.000142298
0.000142298
0.000142298
0.000142298
0.000142298
0.000142298
0.000142298
0.000142298
0.000142298
0.000142298
0.000142298
0.000142298
0.000142298
0.000142298
0.000142298
0.000142298
0.000142298
0.000142298
0.000142298
0.000142298
0.000142298
0.000142298
0.000142298
0.000142298
0.000142298
0.000142298
0.000142298
0.000142298
0.000142298
0.000142298
0.000142298
0.000142298
0.000142298
0.000142298
0.000142298
0.000142298
0.000142298
0.000142298
0.000142298
)
;

boundaryField
{
    defaultFaces
    {
        type            empty;
    }
}


// ************************************************************************* //
