/*--------------------------------*- C++ -*----------------------------------*\
  =========                 |
  \\      /  F ield         | OpenFOAM: The Open Source CFD Toolbox
   \\    /   O peration     | Website:  https://openfoam.org
    \\  /    A nd           | Version:  11
     \\/     M anipulation  |
\*---------------------------------------------------------------------------*/
FoamFile
{
    format      ascii;
    class       volScalarField;
    location    "2.5";
    object      gradTx;
}
// * * * * * * * * * * * * * * * * * * * * * * * * * * * * * * * * * * * * * //

dimensions      [0 -1 0 1 0 0 0];

internalField   nonuniform List<scalar> 
5712
(
-6502.35
-8310.4
-15463.9
-22562.9
-23011.1
-39730.2
-17715.4
-45129.9
-14438.1
-31719.2
-21584
-32821.9
-19381.2
-25388.6
-8518.19
-9732.88
-14467.1
-16566.2
-18732.2
-18579.2
-14769.6
-18273
-21774.1
-19557.9
-5273.09
-3946.48
-6562.18
-4398.7
-12212.3
-9730.93
-20881
-15085.5
-16195.9
-16814.5
-17941.7
-17046.1
-6239.4
-4915.62
-38399.3
-51414.2
-24800.7
-30455.1
-51718.7
-67100.8
-26762.2
-30635.1
-28428.7
-40171.3
-24790.1
-32879.2
-14477.6
-23369.8
-2760.45
-929.055
-2910.79
-1047.78
-8339.34
-3360.71
-11463.3
-4209.92
-8128.69
-3122.88
-8690.67
-2783.55
-14833.8
-4715.26
-19149.8
-6454.27
-23570.8
-11675.8
-21577
-12795.9
-22169.1
-14336.4
-19492.5
-14692.2
-16913.4
-10040.8
-16897
-8583.77
-22257.1
-14262.7
-22304.3
-14403.2
-20580.3
-15569
-20828.2
-15648.5
-18274.4
-11618.2
-18930.8
-11911.4
-17250.1
-7446.07
-7945.95
-9643.22
-17322.7
-8130.27
-6910.87
-9740.29
-18274.6
-7421.16
-9023.89
-9734.92
-19184.6
-7605.46
-9824.89
-10182.7
-3577.87
-3903.02
-1197.95
-2322.9
-10498.9
-11090.6
-4033.46
-7101
-13444.3
-14968
-6419.84
-10892.3
-12252.1
-1171.51
-13415.1
-16435.9
-8863.49
-835.2
-7499.06
-11998
-19280.6
-13198.6
-9709.21
-11738.3
-10196.9
-8738.59
-13676.8
-3456.87
-2864.84
-1969.5
-1956.5
-9767.12
-8288.18
-5839.98
-5562.9
-12224.4
-10434.7
-7631.09
-6859.6
-5880.72
-7458.79
-12094.7
-12505.2
-13876.3
-12637.9
-15629.8
-13653.9
-10448.3
-8788.27
-8992.9
-9547.9
-11844.5
-9472.47
-10757
-7946.79
-9272.25
-6489.29
-10716.8
-7065.77
-10175.1
-4901.47
-8710
-9512.72
-12489.7
-16376.6
-13731.1
-20038.8
-6909.51
-7745.25
-8996.46
-3050.76
-7752.04
-14995
-7348.75
-16050.9
-13589.3
-24718.8
-13823.8
-26204.2
-5832.89
-12839.1
-5289.99
-13657.7
-8036.02
-6149.37
-11131
-4471.62
-8319.3
-1832.92
-9732.29
-918.72
-7704.26
-9148.49
-11654
-5417.07
-6360.04
-10764
-10300.6
-7088.86
-2300.43
-2041.88
-1848.39
-1648.2
-1522.42
-1374.48
-6835.26
-5682.59
-4971.92
-4359.18
-3559.84
-3122.73
-8447.31
-7367.72
-6842.39
-5260.11
-4357.82
-4146.65
-6616.98
-5930.16
-5812.1
-10967
-8474.05
-7195.05
-10248
-7704.32
-6316.79
-10775.9
-8629.08
-7559.39
-6578.51
-4412.17
-3480
-15785.4
-13830
-12089.5
-10070.6
-8499.13
-7151.67
-8859.45
-7000.98
-5679.57
-7370.18
-5417.23
-4239.6
-7467.52
-4216.65
-2429.6
-10259.2
-13926.8
-8094.44
-10488.6
-10981.2
-16165.5
-9792.09
-14294.6
-54.0585
-741.987
492.105
-106.5
-2964.62
-3368.91
-1226.58
-664.719
-700.015
-2418.95
-9343.74
-13669.1
-6641.03
-3614
-9773.75
-9698.07
-14997.3
-16513.4
590.47
4058.02
-7509.26
-7082.85
-7077.94
-5462.53
-1032.38
-553.772
-658.974
-260.146
-2014.03
-242.29
337.888
842.753
-9214.37
-2446.48
-6203.03
-1648.45
-8934.18
-2743.51
-10811.7
-3510.92
-8752.12
-11873.2
-8104.07
-11594.7
-13969.4
-14841
-13344.1
-14073.1
-5666.15
-9487.81
-6529.97
-9415.8
-8598.28
-11180.7
-9485.17
-11308.4
-13903.5
-13834.4
-14561.8
-13904.7
-5719.46
-9194.74
-6223.14
-9377.83
2.98673
-1505.36
-7599.45
-4947.28
575.065
-1087.61
-7041.75
-4384.5
-446.061
-1750.58
-7779.27
-5383.59
-902.878
-2023.42
-7836.85
-5588.28
671.569
779.064
-184.003
-40.8047
2870.77
2921.24
168.896
315.982
516.132
1925
-1805.63
-1173.01
10237.7
9477.24
5546.39
4201.93
332.452
10412.3
10802.6
4318.29
6360.22
709.553
-10129.4
-8024.87
-7249.87
-6920.43
-4382.23
812.03
770.291
9.83463
-109.128
2567.84
2586.1
20.6323
-255.949
2574.79
3211.81
-838.762
-1222.98
5134.21
2383.98
8218.76
5225.84
3657.49
2820.82
4105.21
3624.88
-635.313
-1661.29
-3737.76
-2364.52
-1041.21
1044.97
-1082.05
735.628
-1896.37
-527.747
-2417.31
-2790.69
-5276.51
-4852.97
-10009.3
-6070.59
-8091.98
-8195.32
-12287.6
-9986.15
-8032.34
-4801.79
-4060.11
-4063.76
-11788.9
-5247.21
-12967.8
-5882.08
-13702.6
-10192
-14624.2
-10915.9
-9715.62
-3937.98
-10879
-4553.79
-6548.09
-5318.5
-5303.86
-7880.58
-4305.39
-4901.97
-4561.63
-7310.86
-7526.26
-5285.65
-5978.5
-9035.64
-9084.86
-5745.75
-7384.7
-9337.67
812.675
887.377
1006.71
4.76902
308.256
351.109
2975.2
3217.8
3238.47
184.695
885.857
900.267
3743.06
4261.46
4408.07
-715.233
852.656
1178.16
1317.04
1138.69
838.689
3935.07
4064.35
3814.52
3225.77
3706.11
3669.4
3989.67
4376.58
4304.71
-1549.02
364.433
520.889
-3426.15
-1931.72
-997.321
1091.58
2301.77
2948.98
1019.21
2592.62
3281.63
407.744
2134.87
2637.12
-2602.36
531.385
910.517
24.3994
41.6239
57.3568
87.8802
274.66
160.78
137.225
137.117
-2.47612
81.4282
196.858
313.724
444.937
296.969
338.426
375.443
-252.847
30.7471
279.734
556.432
155.229
243.584
325.104
379.222
34.1938
147.896
160.99
161.527
-225.991
-5.15885
131.256
227.704
-1009.16
-206.033
117.136
348.833
-1580.77
-367.101
18.4043
593.055
-712.21
-87.4816
201.319
503.605
-1303.93
-279.781
-0.863829
520.741
-1070.47
-246.118
141.926
434.646
-1769.64
-436.495
16.7067
696.212
-1192.84
-327.268
127.846
514.788
-1905.4
-500.034
-6.19479
728.24
3.49116
23.8709
49.4581
109.72
33.8186
32.8682
30.7921
100.756
59.8912
82.3679
151.335
295.336
158.475
112.215
94.3271
272.247
-445.742
-54.0995
168.324
505.905
-216.247
27.6949
126.686
481.202
-111.356
122.924
247.015
504.451
-44.728
98.2857
109.805
485.568
-1129.8
-215.075
40.3203
677.667
84.844
46.8286
35.8235
75.8689
168.243
69.04
37.301
35.223
169.76
110.991
80.5668
196.283
427.66
183.384
94.7262
90.9405
84.9831
122.563
112.842
323.548
534.559
257.335
143.004
143.623
-129.826
110.23
142.296
449.37
405.089
277.288
170.575
183.128
-606.953
10.485
81.8703
434.387
91.7858
238.477
159.818
188.93
-1313.34
-131.675
70.9726
503.748
-432.524
59.6173
104.474
177.945
-1025.75
-41.4637
82.7078
470.064
-272.659
139.222
137.172
191.795
-1578.93
-244.079
32.7583
546.288
-578.758
-19.804
69.0412
166.583
-1778.64
-357.062
-21.2635
539.438
-715.6
-107.686
21.9616
144.02
39.204
17.8118
9.48896
5.77165
4.2832
51.8059
27.4397
15.6201
9.74999
7.28706
93.5787
41.4852
22.0486
13.4843
10.0837
117.572
61.5613
35.0824
22.0107
16.508
124.057
51.9646
27.2752
16.6654
12.4964
158.427
81.7261
46.6822
29.4514
22.1672
83.3751
41.9481
23.8539
15.0765
11.355
58.7843
24.4782
12.7575
7.84107
5.8493
125.218
53.269
28.4678
17.5909
13.1465
59.6601
21.7696
10.9679
6.63642
4.92406
131.919
62.0333
34.6681
21.7446
16.3472
56.2958
21.66
11.246
6.8579
5.08276
96.1451
34.731
17.2159
10.3865
7.71702
56.4698
19.4342
9.59936
5.80456
4.31556
82.9585
22.0994
8.82635
4.87025
3.49147
45.7777
10.4197
3.79442
2.01046
1.41528
32.6233
13.4239
6.89489
4.11066
3.02551
23.5454
10.6494
5.71772
3.45541
2.55187
79.6784
33.7501
17.7767
10.7494
7.98173
60.8153
28.1015
15.3502
9.36268
6.9406
111.725
41.596
21.0182
12.5317
9.27917
82.7187
38.8213
21.4331
13.1188
9.79157
101.079
47.7314
26.8283
16.7593
12.6143
56.4372
29.6287
16.9044
10.4749
7.89345
52.5742
26.2716
15.0976
9.52979
7.17458
-347.563
-463.792
-789.736
-1137.9
-841.693
-1429.16
-339.291
-1176.01
298.244
-265.482
-749.337
-1227.4
128.6
53.8506
-1135.87
-1784.36
-1423.49
-2027.29
-595.654
-137.877
-30.984
-6.82828
-1.70849
-207.581
-90.7721
-12.9457
-3.39233
-1.45444
-1830.06
-421.767
-95.1063
-20.8562
-5.2251
-498.301
-132.371
-31.8448
-6.67092
-1.78003
-3079.67
-711.289
-160.803
-35.3741
-8.84212
-786.911
-223.097
-53.6251
-12.3416
-3.08175
-4143.19
-959.786
-217.838
-48.0581
-12.025
-913.099
-279.857
-69.4632
-16.1782
-4.03383
-5192.57
-1214.81
-277.596
-61.5398
-15.4602
-1003.33
-338.475
-86.5646
-20.4394
-5.15735
-6189.75
-1493.09
-345.889
-77.3139
-19.5049
-1527.69
-466.515
-114.94
-26.3288
-6.57421
-5748.16
-1381.25
-318.567
-70.9158
-17.8363
-1198.37
-397.149
-100.694
-23.506
-5.87513
-6396.35
-1545.7
-358.79
-80.3244
-20.2945
-1723.85
-510.225
-123.936
-28.0056
-6.97629
-6673.35
-1599.35
-371.802
-83.2039
-21.0103
-1785.06
-530.38
-130.024
-27.2988
-7.19699
-511.437
-6824.31
-6228.8
-2240.47
1613.74
2757.95
7696.64
11251.8
1719.01
8255.81
-1586.1
2578.51
2476.32
4876.12
9183.13
12994.8
13902.4
17442.7
5674.37
7348.01
-19745
-14311.6
-4868.3
-3850.45
-2773.36
-3972.98
-3672.96
-12209
-11807.4
-10038.7
-10969.3
-9125.69
-6522.64
-8451.62
-5661.81
-4793.66
-5849.51
-4016.58
-19751.7
-10360.7
-3723.09
-6329.12
-8513.95
-5969.74
-6552.92
-4888.67
-2999.72
-4246.8
-4482.52
-4839.36
-19434.9
-12800.6
-12192.7
-8836.52
-8819.19
-9228.79
-4041.29
-5346.46
-6717.52
-14212.7
-12460.6
-10664.8
-10096.1
-8918.35
-9342.19
-6451.95
-5093.9
-4000.85
-2107.65
-4303.34
-3574.15
-2683.43
-1675.06
-573.736
-3441.14
-2883.3
-2171.56
-1350.44
-458.907
-2464.53
-2050.17
-1531.98
-946.217
-320.184
-3554.29
-2978.46
-2240.09
-1389.38
-470.907
-3262.34
-2715.23
-2033.14
-1259.82
-427.559
-7911.7
-6139.35
-4913.06
-4684.31
-5199.59
-6498.68
-4838.36
-3514.59
-2982.14
-2119
-6277.01
-3777.97
-2653.01
-1889.8
-929.059
-5653.39
-3839.81
-2589.12
-1922.22
-1153.41
-4266.1
-2675.23
-1682.04
-1187.01
-590.308
-5169.61
-3868.85
-2681.27
-1609.72
-556.33
-5751.98
-3691.43
-2424.13
-1464.62
-554.42
-3714.59
-2212.02
-1324.91
-719.424
-244.31
-3953.91
-3055.96
-2156.17
-1293.18
-437.3
-4672.56
-3491.02
-2383.84
-1391.66
-463.126
-3347.62
-2607.56
-1843.82
-1100.57
-368.344
-13164.7
-10155.8
-8360.16
-7632.98
-7477.76
-7655.98
-5576.86
-4124
-2842.78
-1303.54
-3102.58
-2432.54
-1747.64
-1069.84
-369.989
-5369.92
-4301.17
-3161.3
-1976.73
-696.544
-6996.27
-5516.26
-4087.02
-2652.76
-1013.87
-5090.7
-4113.64
-3061.69
-1941.87
-692.482
-5682.44
-4652.51
-3479.8
-2193.75
-768.294
-4259.3
-3488
-2592.6
-1613.39
-554.715
-2588.36
-2087.49
-1519.54
-923.75
-311.102
-3741.5
-3086.25
-2292.33
-1412.79
-478.547
-3817.1
-3045.87
-2207.38
-1346.68
-458.107
-4195.59
-3414.06
-2519.41
-1557.36
-533.09
-13635.9
-11441.7
-9729.16
-8884.16
-7968.61
-8931.12
-6443.04
-5033.95
-3807.84
-1984.13
-9049.8
-7230.08
-5585.05
-4209.21
-2087.71
-6976.15
-5323.75
-4047.03
-2791.31
-1154.55
-7378.12
-5926.17
-4455.8
-2915.4
-1105.35
-7227.38
-5470.57
-4131.48
-2837.23
-1159.77
-3474.97
-2816.77
-2086.71
-1306.64
-456.29
-4715.93
-3901.23
-2912.22
-1806.06
-614.933
-5790.63
-4709.16
-3501.58
-2198.74
-767.905
-5469.41
-11123.6
-11616.9
-31758.2
-11470.6
-42566.9
-6248.21
-15141.8
-11484.1
-8876.89
-19034.6
-15884.5
-11479.6
-10827.1
-21386
-16962.3
-4022.55
-2985.44
-7770.9
-5333.49
-9017.81
-6792.01
-24150.5
-17826.2
-14872.8
-11306.9
-15280.5
-9093.47
-1178.44
-3670.58
-39612.3
-51903.7
-23969
-30308.4
-52419.5
-67380.8
-25847.8
-30413.8
-29490
-40714.9
-24035.8
-32819.4
-15913.1
-24046.6
-1916.2
-504.707
-3360.93
-1146.03
-6518.03
-2904.9
-13210.5
-4766.57
-2873.5
-1626.28
-7183.43
-2256.01
-14859.3
-4664.79
-19323.9
-6503
-16256
-8410.51
-18697.3
-11122.3
-14859.2
-10625.6
-16639.6
-12914.2
-14893.3
-8714.93
-11798
-6080.45
-21142.1
-13506.5
-22025.1
-14196
-19445.2
-14796
-20525
-15437.9
-17528.3
-11003.3
-18753.7
-11741.3
-16276.5
-7171.76
-7077.43
-9314.91
-14571.4
-7327.19
-5294.62
-9141.96
-18010.9
-7352.05
-8618.5
-9573.11
-19152.2
-7599.84
-9710.34
-10135.3
-1103.07
-989.587
-265.694
-1166.67
-4479.7
-4625.05
-2793.85
-5526.94
-2497.71
-3114.25
-4330.92
-8178.22
-11981.7
-9648.99
-9227.14
-11483.9
-7539.88
-7607.96
-8110.89
-6766.01
-13287.3
-11471.8
-11396.7
-9505.16
-6572.06
-5617.43
-12332.9
-1066.47
-800.846
-593.784
-665.456
-4162.28
-3310.12
-3515.31
-3097.37
-591.777
519.1
-4150.98
-3259.02
-10122.5
-10752.7
-9448.9
-8646.42
-6988.1
-5078.21
-9128.88
-7277.46
-8121.03
-6362.89
-11495.3
-11722.7
-9804.88
-7702.61
-7234.44
-4940.42
-6355.57
-4045.76
-9455.18
-5766.96
-9232.97
-5084.04
-8228.51
-9394.41
-12989.1
-17298.2
-13697.9
-20005.4
-6284.22
-7486.39
-7634.02
-2899.21
-7577.87
-14846.3
-7307.8
-15995.1
-13528.5
-24812.6
-13800.7
-26183.9
-5597.52
-12656.5
-5234.07
-13601.8
-7569.48
-5980.96
-10935.8
-4446.58
-7299.85
-1815.64
-9412.76
-1242.5
-7517.93
-9031.49
-11565.4
-5392.34
-6310.98
-10726.1
-10276.8
-7074.88
-790.568
-735.204
-534.163
-617.308
-2525.6
-1846.11
-2280.56
-2074.52
1076.94
599.439
-2673.69
-2972.89
-10649
-10117.1
-7653.85
-6624.93
-4037.25
-3411.37
-5707.1
-4715.53
-5348.89
-3909.98
-18239.7
-16005.8
-7926.6
-6778.67
-5987.64
-4587.61
-4929.36
-3193.14
-5233.81
-2297.95
-5586.18
-9185.07
-4897.38
-9285.22
-8247.59
-10324.2
-9243.43
-12601.9
-997.275
-733.264
-783.175
-671.6
-3639.7
-2621.64
-2988.55
-1707.19
-1440.86
-1714.13
-8334.36
-8962.66
-4697.51
-4245.38
-9276.63
-9588.96
-14190.7
-16289.9
324.175
3853.81
-7354.73
-7117.79
-6998.07
-5519.72
-1085.16
-987.674
-1175.32
-972.631
-1784.8
-1242.78
-659.36
-570.075
-8159.59
-3857.09
-6931.83
-3237.35
-9253.41
-3698.85
-10950.8
-3903.22
-5424.48
-10262.9
-6999.49
-10742.6
-8629.4
-11595.3
-11295.8
-12568.1
-5295.59
-9314.13
-4808.44
-9274.81
-8157.51
-10834.8
-9356.41
-11217.7
-13046.9
-13207.3
-14318.1
-13735.2
-5652.59
-9155.48
-6218.53
-9377.52
-634.546
-2369.96
-8047.19
-5631.78
-615.731
-2452.96
-7970.01
-5392.74
-924.175
-2360.66
-8031.21
-5804.51
-1100.62
-2269.6
-7912.88
-5733.67
-1089.69
-1200.58
-1028.82
-1121.45
-2140.85
-2199.96
-1498.38
-1638.41
-8450.25
-7805.36
-4043.23
-4104.36
-3791.38
-5238.19
-4115.97
-404.846
-1956.92
-1343.12
-1432.5
-3642.04
2579.35
-1014.33
-13707.7
-11736.3
-10716.8
-9430.12
-6049.13
-1210.54
-1097.85
-1271
-1599.65
-2187.41
-1723.93
-2110.63
-2813.2
-8174.79
-8097.32
-4549.68
-5921.6
-5052.77
-6712.55
-3205.61
-5134.56
-4916.92
-5366.04
-1262.63
-1624.76
-3124.56
-4646.49
-9655.66
-7950.17
-7681.5
-5659.74
-6793.09
-4870.99
-6135.04
-4516.52
-4657.96
-5156.71
-8422.43
-8336.82
-11322.9
-7336.3
-10420.2
-11206.3
-13042.2
-10993.7
-9619.12
-6034.13
-7108.35
-7120.11
-12310.6
-6037.36
-13103.9
-6075.24
-13916.1
-10847.5
-14667.7
-11057.6
-10451.4
-4713.57
-11087.4
-4761.36
-8063.96
-6443.41
-6657.04
-9153.9
-6907.86
-7379.08
-6509.91
-9371.59
-8322.49
-6023.13
-6750.42
-9850.12
-9334.41
-5978.52
-7635.01
-9571.56
-893.325
-767.721
-1158.01
-842.444
-1462.91
-1727.23
-1719.35
-1240.78
-7936.98
-6948.09
-3981.42
-1766.53
-7887.18
-7492.39
-6181.69
-5561.57
-5205.28
-4456.35
-1932.77
-1969.42
-4428.73
-1982.11
-8647.46
-7415.47
-4929.66
-3888.44
-3876.17
-2405.16
-2920.71
-1244.26
-4628.32
-118.753
-247.571
-114.626
-39.3961
25.4713
-233.565
-147.748
-56.0171
11.3933
-668.698
-298.384
-15.987
188.637
-605.684
-353.9
-59.4509
116.508
-1092.92
-441.168
25.1459
432.185
-1079.21
-534.936
-187.837
14.2987
-740.114
-360.481
-178.04
-57.6761
-566.433
-236.118
-23.919
124.15
-1631.68
-576.585
-131.197
162.058
-1946.48
-555.908
-89.0144
569.362
-1568.21
-555.121
-90.2545
293.556
-1768.45
-500.541
-117.485
520.688
-1523.35
-530.61
-39.9874
324.425
-2016.61
-572.471
-69.2683
660.813
-1378.96
-448.327
49.0402
465.648
-1995.86
-552.051
-39.5933
714.752
-229.739
-93.8816
-14.3624
79.1395
-198.001
-71.6549
-28.4892
76.096
-592.608
-245.549
-24.199
203.582
-497.812
-188.997
-76.0482
196.347
-1170.33
-409.259
-9.44385
443.23
-1064.37
-357.044
-85.2767
407.314
-1299.45
-485.901
-94.7309
325.199
-982.908
-339.02
-115.998
454.593
-1783
-500.287
-102.322
717.562
-142.488
-53.6627
-16.5837
49.0435
-64.5815
-37.6016
-17.7916
-0.349418
-429.658
-155.158
-66.2704
118.017
-214.441
-112.531
-61.6786
-9.47602
-763.58
-258.113
-100.52
213.457
-439.26
-197.486
-97.075
-8.61817
-1162.49
-372.038
-128.29
322.212
-772.844
-291.453
-129.268
-3.16462
-1533.63
-446.953
-196.087
277.724
-1045.87
-352.795
-168.928
-24.6002
-2054.57
-579.797
-208.914
347.124
-1040.19
-327.802
-137.932
15.0771
-1978.78
-569.193
-239.46
289.771
-1149.31
-365.322
-162.412
-10.6888
-2029.32
-530.603
-149.626
447.078
-933.067
-263.67
-85.3922
67.4413
-1926.67
-454.004
-83.6824
505.401
-826.916
-187.241
-28.9711
111.608
-7.71607
-12.2746
-8.96904
-6.13678
-4.7431
-31.9542
-23.8091
-15.453
-10.2413
-7.85737
-15.3717
-27.9932
-20.4886
-13.9439
-10.7034
-69.0594
-52.6862
-34.2272
-22.5963
-17.2909
-9.65343
-33.6861
-25.128
-17.1184
-13.1078
-90.054
-69.2874
-44.7529
-29.3736
-22.4046
-43.6317
-34.7274
-22.5312
-14.7671
-11.2611
-6.37882
-14.9363
-11.1267
-7.54916
-5.83529
-21.5058
-36.5499
-26.0122
-17.4744
-13.4266
4.75012
-12.3442
-9.77796
-6.72287
-5.20133
-54.818
-50.1927
-32.9888
-21.7254
-16.578
-2.12729
-14.1652
-10.4561
-7.10041
-5.49176
11.4849
-17.6575
-14.6657
-10.159
-7.86428
8.65109
-9.9338
-8.21562
-5.66636
-4.38465
44.2232
-1.96569
-5.88004
-4.65165
-3.77645
29.7441
0.389947
-2.34244
-1.96898
-1.63081
-0.80826
-8.63818
-6.672
-4.64138
-3.60718
-7.37404
-8.45878
-5.8378
-3.96625
-3.06644
-11.5236
-24.2992
-17.576
-12.0001
-9.24883
-25.4502
-24.0115
-15.9797
-10.73
-8.26497
7.75141
-26.329
-20.5109
-14.219
-10.988
-41.7992
-35.0129
-22.7789
-15.2165
-11.6503
-50.2281
-41.6936
-26.771
-17.6189
-13.4106
-46.1363
-29.3263
-18.1882
-11.9901
-9.10274
-34.8807
-24.1302
-14.985
-9.75062
-7.41998
-64.7474
-202.595
-121.061
-517.79
-72.9227
-716.198
205.592
-650.958
467.548
-116.576
-771.026
-1252.29
83.3458
-82.423
-1148.71
-1789.93
-1427.36
-2028.04
-576.545
-136.015
-30.7464
-6.79147
-1.70065
-154.91
-84.1574
-11.7616
-3.22155
-1.43504
-1782.01
-416.88
-94.4731
-20.7551
-5.20326
-372.845
-113.149
-28.9041
-6.21907
-1.70482
-3005.98
-702.743
-159.587
-35.1725
-8.79853
-644.797
-200.619
-50.0696
-11.7841
-2.98365
-4056.96
-947.888
-215.927
-47.7203
-11.9515
-811.471
-262.059
-66.416
-15.6632
-3.93746
-5118.03
-1201.99
-275.231
-61.089
-15.3591
-969.795
-329.264
-84.6098
-20.0618
-5.08005
-6158.08
-1485.03
-344.039
-76.9163
-19.4097
-1530.56
-465.854
-114.614
-26.2391
-6.5505
-5702.13
-1370.32
-316.224
-70.4358
-17.7256
-1202.24
-394.19
-99.7414
-23.2851
-5.82507
-6377.19
-1540.72
-357.609
-80.0646
-20.2311
-1724.24
-509.93
-123.806
-27.971
-6.96706
-6666.91
-1597.69
-371.398
-83.1138
-20.9882
-1784.93
-530.271
-129.986
-27.2917
-7.1948
-534.016
-6751.97
-5982.48
-2201.67
-1560.55
-936.754
-3675.15
-2690.08
-6327.46
-5918.34
-3007.25
-2272.05
-411.927
-628.619
-1074.4
-1735.74
-2584.36
-3533.73
-296.537
-634.569
-1315.13
-2278.61
-3409.78
-4541.58
-313.801
-144.659
-537.038
-368.036
-985.402
-819.986
-1636.61
-1523.33
-2337.51
-2254.45
-3036.05
-2752.28
-4338.94
-4854.88
-5230.27
-7705.4
-8566
-9400.73
-5462.06
-5955.48
-5878.68
-5323.84
-4526.7
-3936.65
-372.226
-315.437
-239.661
-149.665
-50.879
-567.693
-480.75
-365.016
-227.834
-77.4331
-969.599
-820.461
-622.505
-388.365
-131.964
-1564.87
-1322.75
-1002.68
-625.193
-212.389
-2326.31
-1963.21
-1486.3
-926.149
-314.584
-3172.5
-2670.49
-2018.25
-1256.94
-427.043
-267.836
-226.877
-172.304
-107.566
-36.5589
-572.796
-484.826
-367.94
-229.583
-78.014
-1186.32
-1003.4
-761.021
-474.68
-161.28
-2053.35
-1734.88
-1314.71
-819.675
-278.465
-3067.81
-2587.91
-1958.92
-1220.77
-414.733
-4076.15
-3430.67
-2593.19
-1615.67
-549.132
-283.656
-240.438
-182.718
-114.127
-38.806
-130.767
-110.846
-84.2367
-52.6144
-17.8904
-485.16
-410.991
-312.142
-194.874
-66.2421
-332.525
-281.732
-213.998
-133.611
-45.4188
-889.651
-753.125
-571.615
-356.695
-121.217
-740.435
-626.927
-475.903
-296.993
-100.93
-1476.13
-1248.25
-946.479
-590.214
-200.508
-1374.07
-1161.99
-881.038
-549.347
-186.606
-2104.99
-1777.01
-1345.43
-838.221
-284.652
-2030.1
-1713.48
-1296.85
-807.586
-274.155
-2726.02
-2294.26
-1732.9
-1078.32
-366.097
-2470.63
-2078.02
-1567.84
-974.32
-330.461
-3877.85
-3251.21
-2451.97
-1527.55
-519.841
-4303.52
-3584.77
-2697.58
-1685.54
-577.046
-4564.84
-3761.82
-2827.08
-1784.21
-622.174
-6520.42
-5282.55
-3987.85
-2594.19
-958.625
-6855.07
-5412.87
-4134.77
-2845.47
-1187.57
-7203.22
-5587.88
-4308.53
-3089.86
-1400.49
-4884.12
-4097.53
-3092.47
-1927.68
-656.145
-5294.94
-4422.19
-3332.66
-2081.76
-711.308
-5178.83
-4297.13
-3235.43
-2032.11
-700.762
-4614.32
-3790.35
-2856.14
-1818.06
-641.687
-3797.18
-3063.98
-2319.45
-1522.37
-569.592
-3184.03
-2520.64
-1919.29
-1303.73
-519.561
-433.825
-695.57
-1189.99
-1905.08
-2815.31
-3814.08
-327.374
-728.699
-1475.45
-2504.47
-3687.47
-4833.14
-334.912
-162.875
-601.856
-425.047
-1098.74
-923.116
-1806.75
-1683.65
-2583.32
-2529.78
-3351.99
-3166.2
-4629.31
-5123.61
-5476.25
-7853.76
-8631.02
-9420.83
-5709.13
-6102.08
-5903.55
-5249.69
-4422.63
-3889.27
-392.126
-332.42
-252.659
-157.83
-53.6643
-628.583
-532.758
-404.86
-252.886
-85.9825
-1074.88
-910.558
-691.67
-431.926
-146.843
-1719.52
-1455.55
-1104.99
-689.819
-234.501
-2538.1
-2145.98
-1627.84
-1015.93
-345.378
-3431.5
-2895.95
-2194.41
-1369.51
-465.815
-295.859
-250.783
-190.593
-119.053
-40.477
-658.376
-557.899
-423.902
-264.759
-90.016
-1332.33
-1128.33
-856.914
-535.068
-181.906
-2259.61
-1911.98
-1451.14
-905.85
-307.949
-3322.5
-2807.73
-2129.18
-1328.8
-451.789
-4345.45
-3665.09
-2776.36
-1732.73
-589.455
-302.817
-256.774
-195.209
-121.968
-41.4792
-147.295
-124.924
-94.9911
-59.3604
-20.1899
-544.066
-461.261
-350.619
-219.048
-74.4887
-384.301
-325.882
-247.762
-154.809
-52.6471
-992.813
-841.345
-639.287
-399.289
-135.761
-834.287
-707.163
-537.432
-335.71
-114.148
-1631.5
-1381.65
-1049.23
-655.109
-222.709
-1520.66
-1288.05
-978.295
-610.85
-207.662
-2330.37
-1971.45
-1495.96
-933.681
-317.387
-2282.75
-1931.66
-1465.93
-914.897
-310.97
-3017.93
-2548.42
-1931.5
-1205.2
-409.783
-2852.36
-2409.65
-1826.4
-1139.21
-387.177
-4149.63
-3491.37
-2642.46
-1650.78
-562.605
-4561.03
-3818.16
-2887.28
-1810.78
-621.094
-4809.77
-3992.15
-3020.77
-1915.87
-669.572
-6693.6
-5465.78
-4157.97
-2720.46
-1008.21
-6954.99
-5530.49
-4253.71
-2942.61
-1231.3
-7240.34
-5633.19
-4355.93
-3130.35
-1419.74
-5115.46
-4302.09
-3254.87
-2032.84
-692.656
-5437.3
-4553.12
-3440.6
-2153.83
-736.817
-5212.18
-4336.43
-3274.45
-2061.76
-712.119
-4558.41
-3753.65
-2837.3
-1812.03
-641.352
-3712.55
-3000.24
-2278.11
-1501.86
-564.765
-3145.07
-2490.59
-1899.21
-1293.47
-517.101
-19682
-14366.8
-5245.2
-4260.41
-3240.2
-4563.44
-4162.05
-12961.1
-14622.7
-11581.5
-13367.5
-8000.88
-11356.4
-6137.66
-6400.4
-4689.76
-20415.4
-11351.3
-4418.2
-7229.88
-9367.69
-6474.21
-7211.17
-5467.13
-3373.88
-4905.28
-5398.75
-5546.16
-19314.8
-12996.3
-12838.8
-9227.8
-9258.95
-9754.78
-4713.96
-5988.01
-7348.48
-14228.9
-12539.2
-10785.5
-10261.5
-9075.41
-9437.92
-6552.22
-5191.96
-4083.42
-2144.1
-4666.66
-3905.31
-2953.84
-1854.14
-636.84
-3824.03
-3220.81
-2438.5
-1522.67
-518.554
-2905.34
-2443.38
-1846.43
-1150.76
-391.33
-4103.96
-3461.24
-2620.61
-1634.16
-555.519
-3725.89
-3130.19
-2365.93
-1476.7
-503.074
-9613.96
-8125.41
-6832.95
-6310.54
-6398.74
-11012.7
-9627.82
-7906.34
-6407.97
-3852.75
-8390.23
-5936.14
-4529.81
-3208.96
-1415.56
-10029.4
-8379.11
-6646.18
-4934.79
-2408.04
-6790.72
-5472.44
-4061.42
-2552.11
-893.121
-8945.94
-6699.44
-4930.17
-3155.91
-1163.47
-5333.79
-4370.28
-3260.08
-2036.68
-701.485
-5541.09
-4526.77
-3371.98
-2107.29
-726.877
-4109.73
-3387.72
-2531.42
-1576.94
-539.721
-14531.9
-11801.4
-10010.6
-9069.71
-8507.57
-8879.35
-6854.14
-5272.09
-3673.96
-1637.99
-3831.68
-3140.84
-2352.27
-1481.61
-517.411
-6294.36
-5188.39
-3914.78
-2490.21
-881.593
-7936.27
-6461.35
-4919.12
-3240.2
-1236.21
-5617.68
-4627.64
-3505.15
-2248.83
-804.838
-6331.64
-5256.74
-3982.41
-2532.06
-889.282
-4830.97
-4020.99
-3035.61
-1910.31
-660.079
-2988.32
-2485.73
-1866.6
-1162.92
-396.875
-4377.35
-3666.56
-2765.92
-1725.54
-588.292
-4742.51
-3921.57
-2941.35
-1840.29
-633.24
-4898.92
-4073.19
-3068.82
-1925.85
-663.758
-13776.5
-11743.3
-10133.9
-9351.74
-8442.92
-9225.35
-6754.05
-5332.61
-4050.15
-2094.87
-9983.43
-8232.46
-6540.34
-4961.33
-2433.28
-7438.14
-5806.43
-4489.29
-3120.33
-1283.73
-7874.45
-6437.88
-4918.23
-3250.51
-1235.3
-7859.56
-6121.39
-4727.61
-3278.06
-1335.65
-4136.11
-3429.39
-2593.32
-1645.37
-576.64
-5334.08
-4464.14
-3370.84
-2108.69
-721.12
-6433.21
-5324.11
-4024.08
-2555.39
-896.368
-495.81
-1406.73
-2227.42
-2996.22
-3723.55
-4401.56
-2584.16
-6947.64
-6616.67
-2535.59
-8844.03
-7414.12
-8867.64
-9827
-2339.44
-1511.28
-5433.17
-3155
-10364.7
-7329.41
211.967
-2099.16
-5798.73
-5447.83
-2045.69
-7537.07
-6061.11
-7452.42
-8402.48
-1937.63
-896.327
-4666.6
-1660.01
-8613.3
-4392.7
1494.03
-1537.92
-4423.25
-4146.39
-1504.78
-5973.33
-3668.4
-6067.67
-6735.08
-1464.73
-815.58
-3314.41
-1723.23
-6901.07
-1781.71
1630.05
-1137.54
-3437.19
-3291.77
-1154.67
-4592.11
-2257.25
-5062.71
-5968.11
-1106.06
-855.802
-2433.62
-1738.9
-6094.01
-392.587
1225.16
-923.066
-2925.51
-2847.94
-977.991
-3707.58
-1880.89
-4556.61
-5803.84
-878.951
-930.331
-1759.3
-1668.82
-5329.43
-176.763
123.76
-817.778
-2619.59
-2622.44
-888.549
-3442.22
-2134.18
-4231.19
-5555.18
-681.871
-730.17
-1462.24
-1636.09
-5243.17
-953.946
-465.336
-1386.47
-3396.27
-4913.43
-1898.26
-5504.84
-9605.34
-7215.66
-10408.4
-1022.17
-735.295
-3908.67
-2450.16
-1235.96
-9277.31
-4866.41
-1294.5
-3178.1
-4333.99
-1655.77
-5108.99
-8717.98
-6539.27
-8902.61
-1050.23
-657.605
-4065.58
-2334.92
-415.367
-9139.34
-3701.4
-1146.82
-2825
-3578.34
-1340.75
-4683.46
-7859.45
-5605.59
-7894.25
-941.803
-757.412
-3513.69
-2450.88
-621.527
-7455.02
-3569.59
-1001.93
-2568.68
-2999.08
-1100.37
-4404.97
-7204.52
-5032.29
-7226.08
-874.306
-774.173
-3286.01
-2576.57
-406.27
-6972.77
-3639.84
-913
-2326.41
-2683.69
-970.618
-4028.85
-6663.76
-4622.16
-6904.9
-825.797
-834.147
-3013.46
-2800.48
-535.509
-6741.01
-3740.83
-852.169
-2086.38
-2500.22
-897.805
-3733.74
-6596.22
-4312.46
-6696.55
-859.421
-961.765
-2696.35
-2666.94
-782.019
-6914.42
-4146.23
5912.5
7464.96
15499.2
22637.5
23041.4
39716
17723.8
45132.9
14450.8
31725
21628
32824.2
19395.1
25468.3
7324.23
8299.65
14479.4
16569.1
18727.4
18576.9
14771.1
18270.9
21771.4
19554.9
4863.04
3673.81
5970.81
4016.45
12213.8
9703.77
20929.1
15106.8
16173.4
16819.1
17934.1
17047
6238.18
4895.27
38404.6
51420.8
24801.3
30457.1
51725.2
67108.5
26762
30636.1
28432.7
40177
24789.7
32881.8
14483.1
23375
2604.98
891.322
2676.07
974.176
8311.46
3347.68
11467.5
4210.8
8123.61
3119.84
8678.57
2778.86
14834.7
4715.27
19152.5
6455.17
23570.5
11674.9
21575.6
12794.7
22166.5
14334.2
19490
14690.3
16911
10039.6
16896.4
8582.78
22256.6
14261.8
22304.3
14402.4
20578.9
15567.5
20827.5
15647.3
18274
11617.6
18931.2
11910.9
17246.7
7444.92
7944.79
9643.1
17320.2
8129.16
6909.54
9740
18274.5
7421.19
9023.37
9735.05
19185.8
7605.96
9824.67
10183
3362.68
3628.07
1149.91
2183.14
10451.5
11050
4011.69
7069.26
13436.2
14959.5
6416.11
10886.3
12252.2
1172.37
13414.3
16432.8
8862.08
836.124
7499.34
11997.3
19276.9
13196.4
9707.9
11737.4
10195.6
8736.6
13676.1
3156.96
2589.54
1779.69
1791.11
9788.62
8307.12
5889.65
5593.78
12217.6
10432
7628.47
6859.03
5880.91
7458.73
12094.6
12505
13875.3
12637.1
15626.5
13652.1
10447.2
8788.17
8992.3
9547.63
11843.9
9472.26
10756.1
7946.41
9270.94
6488.74
10716.7
7065.9
10174.5
4901.4
8709.2
9512.5
12488.7
16375.9
13729.9
20038
6908.93
7745.2
8995.92
3050.74
7751.3
14994.8
7348.04
16050.8
13588.1
24718
13822.8
26203.4
5832.41
12839.2
5289.53
13657.8
8035.79
6149.45
11131.3
4471.83
8318.82
1832.96
9732.51
918.984
7704.19
9148.67
11654.5
5417.29
6359.94
10764.3
10301
7089.13
2047.49
1831.2
1682.82
1508.41
1402.9
1278.48
6860.32
5691.72
4971.76
4386.73
3572.35
3125.98
8447.38
7368.53
6843.14
5261.19
4360.18
4149.06
6617
5930.32
5812.3
10966.9
8474.24
7195.32
10247.7
7704.57
6317.17
10775.6
8629.7
7560.18
6579
4413.29
3481.26
15785.3
13830.2
12089.8
10070.5
8499.2
7151.89
8859.3
7001.1
5679.85
7370.05
5417.42
4239.95
7467.63
4216.96
2430.04
10234.1
13910.9
8067.04
10474.8
10969.4
16156.6
9777.97
14286.8
90.9513
646.706
-411.397
63.8368
2964.18
3441.56
1227.84
743.468
675.35
2393.86
9327.83
13649.3
6623.92
3601.27
9766.73
9694.97
14993.2
16511.6
-596.222
-4059.88
7500.1
7078.6
7072.65
5460.52
902.374
503.558
556.302
223.403
2068.92
253.346
-277.582
-825.892
9203.63
2444.95
6196.69
1648.54
8927.65
2741.97
10808.3
3509.85
8742.47
11868.3
8096.49
11590.8
13962.8
14837.1
13338.9
14070.1
5659.26
9484.13
6521.49
9411.39
8593.65
11178
9482.65
11306.6
13900.3
13832.2
14559.9
13903.1
5715.17
9192.12
6220.88
9376.07
-6.67106
1504.86
7596.81
4946.26
-579.382
1086.9
7038.85
4383.46
443.243
1749.88
7777.2
5382.66
901.381
2022.94
7835.44
5587.56
-637.521
-735.375
168.661
30.1856
-2846.49
-2894.93
-165.05
-305.309
-514.83
-1923.62
1805.15
1172.68
-10237.7
-9476.45
-5546.69
-4202.13
-332.609
-10411.2
-10801.5
-4318.25
-6359.07
-709.525
10127.4
8021.87
7246.89
6918.06
4381.22
-778.578
-733.946
-33.7794
77.883
-2537.46
-2559.27
3.64601
278.443
-2573.34
-3209.46
838.44
1222.32
-5134
-2384
-8218.48
-5225.79
-3657.79
-2820.91
-4104.73
-3624.12
635.004
1660.8
3736.82
2364.17
1039.86
-1045.35
1080.86
-735.921
1895.57
527.579
2416.78
2790.21
5274.41
4851.98
10007.1
6069.46
8090.32
8194.46
12285.8
9985.12
8030.32
4800.77
4058.25
4062.84
11787.2
5246.23
12966.4
5881.27
13701.1
10191.1
14623
10915
9713.96
3937.12
10877.7
4553.09
6546.57
5317.61
5302.95
7879.68
4303.98
4901.13
4560.76
7309.97
7524.99
5284.83
5977.66
9034.72
9083.78
5745.06
7383.95
9336.87
-776.643
-828.233
-937.355
-32.6185
-304.98
-341.312
-2946.26
-3201.61
-3227.17
-157.286
-871.073
-890.068
-3740.13
-4258.75
-4406.15
713.959
-852.165
-1177.8
-1317
-1138.57
-838.569
-3935.02
-4064.14
-3814.31
-3225.58
-3705.74
-3669.05
-3988.62
-4375.31
-4303.61
1548.36
-364.398
-520.719
3425.93
1931.8
997.508
-1091.71
-2301.61
-2948.73
-1019.26
-2592.35
-3281.29
-407.669
-2134.48
-2636.67
2601.89
-531.414
-910.441
-19.9878
-36.8629
-51.6098
-78.9344
-256.035
-149.027
-126.974
-126.163
2.94954
-81.1687
-197.075
-315.136
-440.17
-295.149
-337.122
-374.589
252.822
-30.7407
-279.675
-556.265
-154.636
-243.388
-325.043
-379.15
-34.218
-147.88
-160.973
-161.49
225.942
5.16518
-131.238
-227.673
1009.14
206.096
-117.068
-348.724
1580.58
367.108
-18.3527
-592.935
712.119
87.5421
-201.207
-503.39
1303.75
279.8
0.925437
-520.596
1070.36
246.148
-141.872
-434.563
1769.45
436.496
-16.6616
-696.103
1192.77