/*--------------------------------*- C++ -*----------------------------------*\
  =========                 |
  \\      /  F ield         | OpenFOAM: The Open Source CFD Toolbox
   \\    /   O peration     | Website:  https://openfoam.org
    \\  /    A nd           | Version:  11
     \\/     M anipulation  |
\*---------------------------------------------------------------------------*/
FoamFile
{
    format      ascii;
    class       volScalarField;
    location    "2.5";
    object      gradTz;
}
// * * * * * * * * * * * * * * * * * * * * * * * * * * * * * * * * * * * * * //

dimensions      [0 -1 0 1 0 0 0];

internalField   nonuniform List<scalar> 
5712
(
7106.86
23360
5635.52
23958.8
4237.63
24804.2
6704.24
38310.5
8243.05
52692.6
8173.1
38335.5
7875.23
31790.8
8183.98
28389.3
4951.17
3046.19
13234.6
7831.08
4859.62
2616.34
14521.7
7205.48
5394.62
3885.94
17310.2
12119.5
4078.06
2911.08
17030.1
12315.9
9558.77
4038.2
8237.16
3659.81
3771.76
8891.53
33221.4
9015.97
11881.8
4035.2
42871.3
11658.5
11159.6
3880.09
23675.2
7355.03
12140.7
4244.29
20540.5
6539.11
5627.55
2790.09
8452.37
3279.3
6085.41
3293.72
8250.99
3150.27
7768.66
4418.36
7109
3072.48
10587
3792.41
3647.14
1269.39
11958.7
8248.06
7422.88
5406.7
13503.2
11099.3
7386
6392.94
6984.26
4681.22
9777.95
6485.44
4907.42
3597.34
2511.21
2055.24
4775.01
4125.63
2492.79
2400.48
4679.53
3046.93
2412.2
1537.84
6205.99
3362.7
4618.97
5610.49
8441.13
6000.28
6648.91
9562.45
4125.96
1946.96
2733.51
3223.49
2059.14
850.715
1185.03
1196.1
7318.07
13147.1
4981.75
14701.2
8613.07
12890.8
6142.95
15429.6
9830.54
11704
7947.12
15121
11889.6
14365
8779.07
8419.29
9253.06
14332.6
13057.8
12657.2
12893.2
18695.3
11643.3
8818.01
7526.31
8411.47
13299.6
15172.6
13496.5
17622.1
16864.8
13892.1
12831.7
17430.3
16534.6
12035.1
11693.2
16384.1
15961.4
10432.6
8141.87
9534.29
8231.9
10318.4
9112.67
11003.1
10461.5
15149.2
15392.8
9762.94
8389.53
9173.3
8677.89
9360.17
9769.4
10487.5
11626.7
13705.7
15681.2
8021.68
6288.85
5529.99
7067.43
10973
13424.6
7628.38
12104.7
4638.24
6135.58
6881.16
5656.18
1316.66
4699.32
697.98
1693.93
3904.64
8158.54
1454.03
2836.7
589.959
3952.13
345.337
1386.36
4534.15
4611.54
5150.42
3168.02
7155.89
5694.4
8417.43
5755.65
1022.2
2523.13
2548.57
1428.22
1433.31
1868.83
2038.25
1535.87
10694.9
6472.18
2025.16
12127.9
6929.71
2263.22
10253.2
6403.93
2150.66
11954.9
6941.86
2261.38
9436.56
5875.67
1924.87
11688
6987.33
2329.89
5260.15
2803.71
743.705
6626.06
4344.63
1511.64
7828.71
5396.21
1858.98
9002.9
5802.12
1921.31
11593.4
7193.45
2515.92
6282.53
3485.82
1090.45
6176.89
4428.67
1664.97
7267.42
5364.8
1962.07
9097.57
6368.28
2268.76
11716.2
7267.04
2569.41
296.571
1999.14
2818.03
4080.76
2141.98
2470.42
5389.85
5126.11
600.31
1039.64
641.085
1083.23
486.928
1418.04
870.007
1861.08
3219.89
1577.56
4077.19
2357.03
2180.04
3799.82
3388.86
966.075
5995.52
1490.64
-1848.2
769.612
1813.27
1371.03
1269.16
1196.57
9906.8
4638.32
2712.27
1715.44
10063.8
4827.14
3403.55
2164.52
9942.19
5203.03
4949.07
3536.45
3538.61
2586.31
1788.05
1724.8
12562.7
11186
5926.06
6161.76
13379.4
12571.4
6606
6672.89
5335.55
5506.5
10908.1
9152.61
3554.45
3719.95
2015.74
2276.37
4085.64
4063.45
2270.26
2424.01
3145.03
3388.05
1794.94
2180.92
4819.89
3460.49
4838.78
3540.79
7488.49
4578.41
7187.46
4898.42
2927.26
2507.29
3070.15
2295.64
1668.07
1587.26
1959.17
1349.45
11844.1
8487.41
6130.04
6387.65
11795.8
8662.84
6170.02
6357.21
12216.3
8938.2
6258.92
6166.99
13785.3
14712.7
12720
8658.85
5106.51
13944.6
13097.4
12372.9
10422.3
7024.13
13076.2
11964.6
9705.96
7630.59
4969.3
7427.5
6772.95
7071.62
8265.62
7597.06
6605.25
7114.62
8128.62
7821.31
6462.98
7142.66
7966.97
10529.4
7420.32
9997.93
7000.28
8050.69
6591.54
7717.54
6737.8
6602.96
7853.68
8739.45
7581.88
7866.26
6912.4
6869.57
6310.58
6250.67
6329.93
5229.16
7483.19
7030.8
4764.95
4676.95
2782.02
9050.44
6975.54
6305.88
5052.95
3900.46
2368.82
5661.8
4238.58
4742.16
2240.76
1750.3
1009.59
4962.92
3579.99
1748.27
1446.08
4163.47
1884.85
1650.03
877.291
3362.09
3172.36
3084.23
4596.21
4683.47
4537.97
3951.56
5918.82
3361.07
2245.64
2206.73
3094.31
1041.21
520.687
278.725
610.909
4731.03
1970.54
579.723
5521.68
1420.36
376.8
4751.57
2115.04
647.963
5488.68
1471.86
409.198
4371.42
2064.66
531.962
5359.09
1488.81
347.291
4548.09
2271.35
488.625
4247.39
2029.16
467.028
4310.59
2057.33
551.719
4412.28
2062.31
430.309
5313.29
1452.59
215.58
5810.54
2888
754.372
5385.87
2666.06
721.081
5042.69
2486.41
720.165
4934.86
2095.54
509.342
5743.6
1348.84
327.145
1840.02
665.666
129.612
-217.048
764.916
292.766
78.9727
-44.0332
1952.19
731.695
187.146
-134.556
971.837
408.265
195.424
91.4069
2101.65
816.814
284.803
-8.56438
1668.96
790.482
316.333
75.525
1275.97
733.892
279.293
-1.97876
1207.98
808.507
487.594
297.53
1748.81
785.331
247.531
-187.264
1505.19
665.993
294.937
-191.518
2067.81
808.014
260.108
-140.572
1877.24
736.668
293.334
-316.982
1407.6
736.082
304.006
-56.9782
1159.53
592.827
322.057
4.6592
1047.08
654.967
399.769
251.767
803.097
505.571
344.615
208.088
2354.04
803.28
124.983
-430.209
2349.78
742.156
175.731
-589.784
2353.26
816.341
147.836
-408.88
2277.44
722.799
184.764
-571.158
2311.06
821.569
227.791
-292.096
2125.76
685.319
230.474
-468.235
2026.61
761.204
318.852
-42.3709
2331.72
769.173
328.588
-547.89
1819.34
683.777
322.329
-129.257
1877.32
524.882
159.243
-401.368
750.965
191.109
44.5275
-84.3501
1934.94
560.456
179.908
-382.129
780.735
206.664
57.7867
-69.1393
1963.49
600.678
225.495
-335.231
791.883
224.361
75.6721
-50.1798
1768.72
567.551
261.017
-264.543
766.89
232.037
104.299
-16.5081
1618.43
566.136
288.293
-153.838
683.823
245.14
143.523
29.811
1134.46
461.889
228.678
-44.1203
643.753
323.335
200.818
108.667
1308.64
466.486
226.599
-109.761
648.386
279.538
172.364
69.6103
915.911
449.995
255.217
42.9857
580.351
343.11
224.021
146.813
649.431
411.508
286.888
182.314
487.587
344.265
247.43
190.532
-19.3206
8.8057
9.01519
6.4533
5.00846
-2.81674
5.89347
5.08146
3.56736
2.76952
10.6127
24.9304
18.3384
12.3578
9.44451
29.6125
24.235
15.8607
10.4005
7.89344
43.6523
44.6595
30.1922
20.0514
15.2892
121.313
82.1619
51.4551
33.4466
25.3281
146.358
97.1935
60.789
39.5906
30.064
212.634
128.844
78.3195
50.5645
38.3415
77.4727
65.3746
42.6992
28.1015
21.2992
82.6188
61.6089
39.3678
25.8471
19.5998
53.1565
52.2915
34.8084
23.1118
17.6008
97.1223
63.7053
39.3808
25.6813
19.4184
101.128
78.17
50.4359
33.1304
25.1737
110.653
73.7904
46.1504
30.1208
22.848
169.071
103.822
63.255
40.8656
30.9722
141.232
85.712
52.1374
33.6781
25.483
-35.8293
4.60455
6.69589
4.95686
3.8775
-19.5932
1.4792
2.62788
1.98387
1.57238
-16.2026
14.7156
12.4618
8.60525
6.64358
-12.5834
5.06238
4.6379
3.23577
2.52455
8.5464
26.4666
19.015
12.8008
9.85894
13.8353
16.9553
11.1432
7.26727
5.57442
63.3475
51.4773
33.0184
21.7971
16.6837
42.1347
32.486
20.3873
13.3554
10.2262
116.935
67.4408
40.4226
26.0897
19.7313
1563.03
3576.2
1570.69
3534.89
1706.87
3501.05
2035.45
3643.62
2130.74
3767.59
847.634
1331.29
1401.56
2252.37
446.292
646.868
156.04
213.068
8182.79
1951.3
446.392
99.5113
24.666
2226.64
598.965
159.117
36.1212
7.83139
8102.06
1916
437.83
96.7723
24.1621
2265.31
667.947
164.404
38.1599
9.45738
7764.52
1822.83
414.864
91.5589
22.8832
2198.76
646.209
158.647
36.6414
9.11369
7146.34
1662.26
377.059
83.1238
20.7767
2139.62
615.759
149.2
34.1515
8.44763
6018.82
1392.4
315.934
69.7288
17.4474
2028.13
567.777
136.042
30.9392
7.62886
2876.07
695.647
160.494
35.6679
8.93555
990.454
281.719
66.9334
14.9519
3.67663
4267.28
1017.63
232.997
51.5358
12.8926
1457.89
409.351
98.1187
22.2996
5.53491
1692.5
412.683
95.6468
21.3578
5.35986
553.037
163.723
38.6366
8.62325
2.13996
584.503
141.649
32.8958
7.3684
1.8496
221.029
59.0966
12.8475
3.62182
0.693711
144.86
512.249
4505.16
-819.538
744.842
798.253
2327.89
2979.72
1872.46
3515.03
2946.01
4544.89
3547.36
4403.17
1844.59
2485.43
1971.29
2338.07
1025.58
1066.33
2295.18
1684.51
514.293
-459.429
-757.521
-909.009
-274.108
12834
3065.29
4201.03
2710.63
-170.611
-39.2251
2956.35
-1407.34
-785.437
-1079.87
-554.031
7047.92
3713.17
1274.42
1053.24
3656.86
2022.24
647.212
1387.22
-1483.98
-857.998
704.6
559.495
8656.91
4299.81
5306.69
2849.87
4084.28
4441.06
1543.05
-888.066
929.791
1633.96
1348.63
1173.46
1069.62
834.043
1338.17
1082.75
852.793
605.921
263.124
452.876
377.99
288.983
185.218
64.8211
-410.261
-342.231
-255.304
-156.829
-52.8065
-676.941
-565.452
-422.747
-260.273
-87.7225
-813.486
-680.775
-510.021
-314.583
-106.141
-238.517
-190.785
-134.014
-76.8583
-24.5077
9353.9
8180.6
7062.18
6566.19
6186.22
2752.64
2446.98
2309.48
1948.85
1040.13
3224.64
2585.01
2196.72
1740.32
919.947
2096.83
1707.52
1500.46
1169.34
494.646
-12.3054
34.0297
147.615
162.608
81.6345
58.6856
141.375
184.473
163.944
70.2503
2518.32
2115.64
1678.76
1178.57
487.808
-855.858
-419.851
-166.79
-31.4501
6.09649
-625.963
-446.357
-271.038
-129.95
-33.968
-763.851
-476.282
-247.926
-98.6281
-21.0696
-501.535
-416.822
-304.631
-181.408
-59.0833
5253.78
4792.52
4185.59
3917.45
3714.41
2863.27
2270.45
1898.66
1456.55
718.908
1183.97
1076.24
918.223
663.291
263.879
931.097
801.138
648.607
448.298
171.525
3055.14
2472.19
1892.5
1265.47
490.522
1795.98
1529.83
1207.88
806.023
293.288
565.769
476.241
373.714
249.17
91.4558
1226.07
1029.11
792.004
511.36
180.541
-1287.82
-1039.79
-751.461
-449.917
-148.935
-754.844
-615.973
-446.582
-266.093
-87.4448
633.293
549.904
445.266
304.504
113.391
505.429
441.238
358.494
244.709
90.222
5612.17
4124.49
3584.85
3343.4
2973.37
3291.68
2570.36
1998.18
1436.38
652.991
3918.75
3227.47
2630.43
2064.34
1017.99
2282.43
1868.17
1463.36
1034.32
454.47
3483.62
2857.96
2191.84
1446.26
537.897
3369.17
2501.4
2042.55
1546.34
661.092
1351
1126.79
866.792
563.027
200.856
-788.155
-650.758
-478.532
-289.223
-96.0666
823.258
707.61
571.349
392.479
147.225
-27140.8
-44490.6
-22497.5
-36019.1
-24139.9
-50657.9
-28898.6
-64319.4
-17179.7
-11736.6
-19354.1
-12034.6
-15859.8
-10180.4
-19659.4
-10324.3
-22420.5
-16866.9
-32690
-23520.3
-19254.9
-15321.8
-27329.4
-20507.8
-15447.8
-15765.4
-12674.4
-12165.5
-14903.5
-14056.3
-37788.3
-10422.2
-14363.3
-5355.48
-46252.6
-12812.6
-12844.1
-4760.58
-28082.2
-8843.63
-14706.3
-5627.36
-24949.3
-7759.18
-11551.8
-4643.42
-14736.3
-5336.01
-10960.7
-4815.53
-12811.2
-4632.99
-11365.2
-5506.27
-10234.5
-4058
-13139.2
-4635.2
-4611.28
-1618.02
-9810.47
-6498.07
-8468.31
-5149.9
-8669.6
-6962.85
-7437.71
-5299.96
-8604.81
-4880.49
-10066.7
-6255.28
-5799.69
-3451.96
-3120.33
-1911.87
-5004.39
-3446.23
-2595.52
-1843.81
-5891.35
-3192.66
-3256.47
-1628.16
-7579.16
-3844.9
-4887.88
-5697.55
-9610.51
-6452.61
-6877.18
-9610.89
-5142.73
-2304.79
-2927.37
-3292.84
-2780.86
-1118.72
-1323
-1250.52
-11335
-13771.7
-6382.2
-15566
-11787
-13143.7
-7329.78
-15918.4
-11917
-11976.3
-8736.8
-15155.4
-8167.38
-6599.88
-8923.53
-9888.12
-9860.66
-9047.19
-10423.2
-12066.3
-12951.5
-18389.3
-6203.76
-6377.32
-6928.19
-8382.14
-13123
-13065.5
-9111.39
-16568.6
-12738.2
-12112.4
-8970.04
-16324.9
-12686.1
-10724.5
-8377.73
-15237.1
-12557.2
-7426.9
-5915.08
-7628.09
-6088.69
-8501.97
-6852.18
-9268.1
-7841.19
-13888.4
-12622.6
-6981.74
-6013.58
-6980.85
-6021.22
-7655.4
-7110.19
-9186.83
-9066.16
-12836
-13172.9
-6392.7
-5105.01
-4704.51
-6189.9
-8038.76
-11156
-6079.44
-10302.5
-4303.29
-5703.72
-6147.45
-5026.86
-801.968
-4077.2
-230.532
-1200.29
-2914.03
-7083.7
-635.581
-1971.92
-382.657
-3637.24
-133.104
-1125.13
-4421.62
-4409.89
-5092.71
-3056.9
-6846.92
-5319.72
-8240.68
-5409.65
-957.756
-2381.5
-2503.93
-1354.22
-1354.64
-1742.77
-1987.14
-1462.22
-5524.55
-1900.48
-7471.52
-2550.1
-5647.64
-1982.98
-7648.75
-2746.94
-5603.05
-1952.47
-8103.96
-3129.04
-3473.2
-971.16
-4307.37
-1657.09
-4845.35
-1884.32
-5819.16
-2207.1
-8552.9
-3411.38
-4432.74
-1337.51
-3935.1
-1961.39
-4733.61
-2271.46
-6395.76
-2809.42
-8856.81
-3351.83
-6004.81
-5640.67
-4492.06
-4432.52
-10041.8
-7683.4
-8137.46
-6752.01
-4098.43
-3596.24
-1671.46
-1215.19
-3857.61
-3765.47
-1531.61
-1611.73
-2881.43
-4561.85
-3448.31
-4929.88
-3740.16
-2412.66
-3121.16
-450.008
-6612.88
-1700.06
2607.49
485.774
-870.599
-228.625
287.058
734.301
-2484.38
-1797.59
-919.326
-566.063
-2630.97
-1902.63
-1360.56
-647.206
-2930.51
-2278.75
-1787.14
-882.381
-1124.99
-47.9752
700.178
1127.3
-5011.25
-5411.2
-3847.79
-3621.98
-6717.11
-6742.9
-5560.69
-4680.01
-2536.17
-2865.37
-3834.6
-4437.02
-2306.62
-2015.31
-944.357
-873.641
-3555.06
-2794.58
-1783.83
-1402.26
-1294.21
-1475.6
-191.363
-550.768
-1703.79
-1247.39
-2490.58
-1865.91
-2705.23
-2279.27
-3862.69
-3067.13
-593.216
-370.169
-1201.25
-732.07
420.406
547.918
-289.359
161.283
-3654.16
-4645.45
-3171.01
-4747.91
-3610.46
-4622.5
-3245.22
-4739.82
-3789.7
-4262.71
-3422.13
-4501.5
-2799.49
-4641.71
-2434.47
-2197.94
-2466.17
-6996.49
-4992.74
-4658.58
-4924.38
-5198.96
-5609.15
-4748.31
-4074.98
-3867.93
-3143.48
-5563.56
-5627.02
-7375.81
-11404.8
-5254.62
-5052.64
-7075.3
-10864.1
-4806.47
-4631.34
-6528.12
-10006.7
-6841.46
-5256.48
-6213.21
-4736.82
-5492.15
-4390.22
-5693.95
-5272.59
-6041.78
-9253.05
-5544.76
-5239.51
-4742.39
-4775.1
-4326.18
-4596.76
-4542.35
-5448.4
-4281.44
-8140.76
-3880.7
-2776.89
-2648.85
-955.203
-5540.1
-4863.97
-4290.14
-3153.62
-2078.12
-762.526
-3197.32
-2578.9
-3194.62
-965.292
-431.058
125.773
-3569.47
-2329.02
-619.413
-352.944
-2654.08
-723.735
-280.432
186.07
-1950.14
-2059
-2183.5
-4124.95
-3035.26
-3478.21
-3130.18
-5761.69
-2046.84
-1333.26
-1189.5
-2497.9
246.216
386.554
807.881
107.388
-4032.76
-1173.27
-7674.88
-782.226
-3763.45
-1261.55
-7458.39
-811.198
-2872.91
-760.71
-6782.03
-639.899
-2886.88
-641.579
-2683.87
-620.362
-2952.83
-897.797
-3138.01
-587.273
-6380.33
-821.913
-4036.78
-783.784
-3755.83
-601.926
-3862.08
-761.456
-4341.9
-648.618
-6699.74
-809.051
-788.629
-157.396
186.615
460.09
-264.262
-38.3166
73.0052
145.549
-776.295
-121.028
204.778
433.563
-178.001
38.8142
78.1393
87.6397
-793.422
-78.6389
207.037
383.501
-2.25292
256.693
399.607
443.161
570.803
501.042
573.689
599.851
1038.16
746.347
579.777
429.33
-341.496
134.732
411.884
693.656
-279.014
188.784
329.3
696.156
-857.76
-62.66
270.622
575.771
-657.871
68.2106
295.996
852.815
142.306
329.99
440.952
589.776
63.9498
293.43
332.129
502.519
605.836
510.967
431.001
345.307
424.461
400.149
333.655
317.741
-1257.9
-274.168
221.848
749.643
-1574.35
-326.952
87.3602
936.692
-1206.34
-235.905
241.011
763.615
-1513.6
-301.611
88.8281
926.261
-1121.46
-177.761
196.331
661.498
-1373.39
-253.45
56.1583
842.521
-745.161
-29.1143
180.71
479.953
-1421.07
-213.719
60.4068
1047.01
-694.926
29.5676
207.694
661.314
-1468.11
-251.485
16.161
660.063
-640.19
-96.3489
28.1232
167.765
-1371.15
-214.728
35.4341
662.571
-609.121
-84.231
31.8931
165.495
-1174.77
-143.162
44.753
643.456
-518.463
-54.2162
45.9113
172.793
-963.093
-83.8439
28.9262
577.17
-424.119
-23.661
46.8351
165.836
-703.469
12.3789
78.5443
494.791
-218.77
46.0947
62.9518
161.74
-311.901
142.81
231.243
459.929
104.549
216.419
194.516
228.192
-578.287
41.1582
148.469
472.643
-20.3073
138.854
128.132
195.219
10.4264
251.362
279.031
415.563
228.693
277.493
240.587
241.576
330.066
341.68
286.075
298.437
353.544
321.036
252.399
221.914
103.315
30.0494
12.4167
6.96676
5.0887
43.7469
14.3862
6.34299
3.62653
2.65035
120.911
43.7112
21.2958
12.8038
9.55505
69.6691
31.626
17.1363
10.6793
8.04964
148.852
61.1977
32.0881
19.7127
14.7847
176.536
91.6952
52.5988
33.2971
25.2111
195.791
105.867
61.4078
38.9114
29.4008
218.969
129.928
78.0443
50.0678
37.9296
177.921
80.7038
44.3454
27.6847
20.9405
150.932
71.2232
39.6977
24.8213
18.7732
160.633
66.3249
35.3277
21.7452
16.3442
132.726
66.3147
37.9325
23.8375
18.0693
191.234
92.6416
51.941
32.5861
24.6103
154.426
80.5165
46.3155
29.2593
22.1668
182.392
105.665
63.1083
40.4176
30.607
151.921
87.3645
52.0224
33.2726
25.2063
112.15
26.6198
10.0003
5.42038
3.9168
52.0464
10.7129
3.78836
1.99259
1.41247
120.919
34.577
15.2961
8.90722
6.55946
55.2352
13.6147
5.74187
3.29504
2.39575
124.774
41.8508
20.5443
12.3556
9.14617
62.5075
22.8254
12.0504
7.50865
5.59207
138.811
58.6156
31.8801
19.6733
14.686
82.3172
35.1907
19.5298
12.1514
9.06585
117.351
65.3584
38.5673
24.4973
18.5568
-1760.11
-3312.21
-1804.77
-3314.03
-1956.47
-3331.97
-2140.59
-3413.68
-2067.11
-3426.79
-807.406
-1263.42
-1346.45
-2104.25
-401.652
-596.639
-106.478
-165.01
-8443.08
-1995.83
-453.748
-100.663
-24.8452
-2270.91
-611.737
-161.962
-36.5976
-7.89487
-8299.35
-1949.67
-443.433
-97.6415
-24.2953
-2315.13
-682.461
-167.213
-38.6367
-9.53586
-7852.27
-1838.58
-417.581
-91.9772
-22.9392
-2240.35
-657.413
-160.774
-36.9964
-9.17094
-7130.06
-1660.88
-376.958
-83.0871
-20.7529
-2152.37
-620.572
-150.195
-34.3177
-8.47209
-5955.08
-1382.27
-314.219
-69.4103
-17.3724
-2005.75
-565.939
-135.898
-30.9165
-7.62009
-2848.83
-689.301
-159.13
-35.387
-8.86999
-966.591
-276.589
-65.9287
-14.7575
-3.63368
-4220.02
-1008
-231.118
-51.17
-12.8097
-1427.65
-404.529
-97.3217
-22.155
-5.50339
-1676.46
-408.841
-94.7714
-21.1693
-5.31427
-533.658
-158.934
-37.5833
-8.40509
-2.08915
-573.171
-139.005
-32.2791
-7.23121
-1.81552
-203.239
-54.5701
-11.7926
-3.39233
-0.638887
193.732
-1040.18
-5316.74
888.423
-6352.99
-2787.84
-6148.09
-2821.31
-11181.7
-5957.75
-12539.5
-6643.18
-133.321
-528.525
-830.058
-978.215
-878.32
-356.976
-218.618
-819.997
-1245
-1375.3
-1109.1
-378.835
-113.212
-121.267
-423.754
-426.775
-606.162
-599.584
-584.374
-552.979
-522.463
-499.77
-407.481
-364.863
847.197
2194.84
3557.14
2522.25
2319.97
1118.1
799.646
2293.25
3709.17
4295.71
3584.58
1634.22
-120.219
-101.613
-76.9908
-47.9719
-16.2881
-477.273
-404.147
-306.818
-191.482
-65.0724
-749.521
-634.633
-481.772
-300.667
-102.18
-883.022
-747.394
-567.165
-353.861
-120.24
-792.706
-670.724
-508.715
-317.208
-107.742
-323.928
-275.199
-208.867
-129.892
-43.9746
-197.026
-166.43
-126.032
-78.5004
-26.6494
-740.055
-626.256
-475.159
-296.429
-100.721
-1123.33
-950.341
-720.924
-449.727
-152.813
-1240.06
-1048.36
-794.846
-495.699
-168.421
-999.266
-844.115
-639.579
-398.734
-135.466
-342.373
-289.945
-219.889
-136.977
-46.4787
-102.156
-86.4222
-65.5393
-40.8641
-13.8791
-109.492
-92.6946
-70.3484
-43.8892
-14.9117
-382.796
-324.285
-246.288
-153.75
-52.2554
-385.587
-326.705
-248.168
-154.943
-52.6651
-547.528
-463.791
-352.207
-219.856
-74.7208
-541.555
-458.691
-348.304
-217.407
-73.8869
-527.82
-447.048
-339.424
-211.824
-71.9772
-499.2
-422.551
-320.653
-200.042
-67.9648
-471.765
-399.314
-302.851
-188.762
-64.0828
-450.592
-380.795
-288.466
-179.699
-61.0017
-368.138
-311.358
-235.476
-146.16
-49.4522
-328.636
-277.239
-209.47
-130.12
-44.0836
753.191
629.534
475.472
297.852
101.936
1943.28
1619.92
1223.45
768.722
264.42
3114.01
2579.95
1952.56
1240.6
434.488
2193.18
1813.26
1376.66
879.614
309.356
2049.16
1699.18
1283.87
805.642
262.045
1018.37
862.145
660.463
415.37
131.768
711.841
595.205
448.991
280.546
95.7775
2036.55
1700.23
1282.61
802.838
274.826
3274.34
2723.02
2054.4
1291.56
445.056
3767.5
3120.58
2355.3
1487.88
516.418
3143.66
2603.97
1967.34
1244.13
430.244
1448.62
1212.47
923.943
586.985
202.694
292.744
685.699
982.396
1123.1
1012.31
494.002
439.619
1034.58
1443.85
1544.41
1234.58
461.997
238.876
227.357
544.908
529.433
716.69
692.689
676.329
624.664
604.978
513.447
545.563
409.161
-690.605
-1957.04
-3145.25
-1970.59
-1645.09
-379.097
-730.44
-2181.03
-3460.79
-3849.11
-2942.48
-869.082
264.822
224.739
171.007
106.921
36.3724
619.942
525.717
399.717
249.772
84.9423
887.944
752.753
572.173
357.46
121.551
1014.94
860.238
653.75
408.37
138.855
915.097
775.834
589.697
368.36
125.243
449.365
383.191
292.273
182.674
62.0519
397.593
337.317
256.605
160.417
54.5674
934.963
792.477
602.295
376.259
127.944
1304.19
1104.86
839.336
524.197
178.23
1394.21
1180.43
896.341
559.682
190.288
1113.97
942.713
715.622
446.811
151.924
418.458
355.402
270.409
168.933
57.4209
216.108
183.411
139.566
87.2641
29.685
205.681
174.551
132.815
83.0367
28.2456
492.73
417.924
317.815
198.614
67.5449
478.744
406.062
308.791
192.971
65.6256
647.935
549.442
417.735
261.01
88.7556
626.184
530.936
403.619
252.169
85.7462
611.518
518.619
394.32
246.373
83.7734
564.549
478.54
363.685
227.169
77.2357
547.356
464.461
353.226
220.673
75.0178
463.94
393.142
298.673
186.494
63.3914
494.872
420.825
320.317
200.005
67.923
370.01
313.715
238.319
148.717
50.517
-610.114
-506.608
-380.774
-238.098
-81.5238
-1726.38
-1433.95
-1080.57
-678.876
-233.835
-2735.41
-2252.18
-1698.39
-1079.77
-379.703
-1671.22
-1347.37
-1003.53
-635.865
-223.765
-1403.96
-1119.19
-815.081
-495.094
-150.489
-309.995
-223.402
-142.317
-70.7711
-7.99138
-648.96
-541.575
-407.999
-254.849
-87.0295
-1935
-1614.03
-1217.08
-762.002
-260.992
-3047.29
-2527.83
-1904
-1196.73
-412.709
-3354.19
-2760.16
-2073.23
-1307.35
-454.119
-2544.18
-2076.43
-1550.31
-974.356
-336.178
-731.517
-578.73
-420.648
-259.947
-88.3331
-1398.6
-882.472
-211.427
716.795
1018.88
1296.01
619.718
-10689.7
-1631.55
-3073.36
-1473.72
290.199
-3943.22
878.219
2512.82
1206.11
-5787.75
-2611.58
-394.72
-504.889
-3307.5
-1214.99
-215.43
-980.735
2204.34
1400.26
-474.405
-119.682
-7625.97
-3537.97
-4179.72
-2008.6
-3475.54
-3239.62
-1027.73
1422.25
-328.896
-671.558
-443.53
-394.643
-511.981
-604.735
-540.512
-343.971
-236.383
-181.955
-103.146
-173.842
-135.926
-100.695
-65.5035
-23.7584
648.437
549.957
417.84
260.756
88.6021
919.069
776.878
588.389
366.306
124.271
1169.12
988.47
749
466.58
158.359
562.035
476.399
359.956
222.453
74.8473
-7675.01
-6890.65
-6248.22
-6386.98
-6741.09
-1040.74
-705.48
-853.556
-1018.17
-731.702
-2150.41
-1586.3
-1392.84
-1242.27
-780.097
-941.59
-621.466
-583.306
-534.953
-244.198
267.159
217.566
143.614
66.429
12.3406
-3289.73
-2698.52
-2084.38
-1426.17
-578.148
794.644
665.094
490.668
293.193
94.4586
2186.71
1788.48
1324.13
816.854
276.982
1083.11
908.605
681.616
420.176
141.161
-4045.34
-3778.68
-3451.23
-3567.55
-3817.03
-1783.55
-1275.77
-1096.97
-947.991
-559.65
-303.357
-255.352
-243.511
-220.247
-111.274
-403.91
-324.568
-265.592
-200.382
-86.5893
-2757.65
-2233.18
-1722.98
-1171.09
-465.056
-1020.3
-829.099
-644.229
-439.318
-165.875
-161.392
-119
-91.1594
-67.3944
-28.8185
-846.59
-695.487
-529.772
-343.752
-123.054
1968.96
1647.2
1236.76
765.514
258.736
1262.14
1063.82
801.197
495.01
166.719
-395.64
-321.39
-252.629
-175.646
-68.3792
-85.6014
-63.684
-55.6044
-48.0733
-22.1999
-4639.45
-3244.12
-2876.8
-2907.9
-2896.33
-2563.58
-1911.98
-1464.45
-1084.54
-529.126
-2775.81
-2189.57
-1777.37
-1503.31
-802.171
-1478.3
-1140.84
-875.795
-650.117
-322.638
-2914.96
-2356.67
-1798
-1195.85
-453.03
-2230.68
-1458.59
-1210.88
-1018.36
-484.543
-872.673
-708.555
-539.582
-354.643
-129.569
1283.88
1084.49
818.994
507.478
171.34
-250.427
-193.341
-159.688
-125.912
-55.2265
0.878604
44.3669
104.404
138.642
105.125
0.0593919
-19171.8
-16920.8
-16164.3
-18422.9
-14044.3
-11114.4
-12678.3
-9625.69
-16578.5
-14503.9
-15273.2
-14340.9
-13398.9
-11406.8
-14074.3
-15760.9
-14083.1
-12978.4
-14638.9
-11834.4
-10023.3
-10606.8
-8509.18
-14853.2
-13166.7
-13681.7
-12438.2
-11843.3
-11068.4
-11399.7
-12362
-11326.6
-10271.7
-11238.3
-9826.67
-8435.03
-8861.92
-7619.31
-12420.3
-11246.3
-11559.8
-10511.6
-10051.9
-9299.86
-9538.23
-8618.95
-8107.35
-7249.6
-7687.29
-7272.48
-6520.91
-6587.48
-6037.08
-8924.57
-9000.8
-8419
-8474.66
-7503.24
-6779.24
-7516.8
-5506.37
-5262.07
-4668.85
-4871.38
-4869.77
-4408.84
-4351.89
-4026.67
-5905.11
-5889.97
-5641.89
-5502.52
-5133.63
-4636.43
-5004.77
-1981.39
-1910.68
-1690.12
-1750.04
-1799.26
-1682.69
-1595.91
-1489.65
-2241.71
-2231.39
-2095.86
-1991.33
-1929.9
-1771.38
-1891.94
-7358.29
-7261.28
-10925.2
-11773.2
-6941.68
-6174.65
-9593.34
-7809.57
-5848.37
-4454.98
-5808.56
-4413.07
-5845.82
-5583.37
-4474.37
-7347.74
-6979.72
-9724.69
-10603.4
-6490.43
-5889.05
-8465.03
-7306.18
-5848.03
-3990.33
-5748.07
-4196.4
-5265.95
-5058.17
-4554.77
-6736.67
-6431.5
-8256.38
-8849.25
-6056.66
-5650.62
-7398.04
-6563.76
-4892.7
-4392.29
-4881.06
-4606.26
-4575.01
-4568.39
-4743.97
-5476.84
-5283.01
-6204.01
-6511.08
-5027.32
-4714.28
-5753.37
-5264.22
-4746.92
-4015.19
-4669.1
-4256.34
-4379.86
-4334.37
-4304.6
-3804.44
-3691.9
-4113.08
-4266.39
-3436.46
-3188.96
-3881.21
-3571.85
-3365.4
-3121.09
-3288.44
-3258.54
-3082.91
-3015.48
-3081.67
-1421.18
-1380.31
-1505.6
-1554.38
-1278.4
-1176.86
-1428.85
-1318.24
-1105.04
-1148.84
-1179.38
-1240.16
-1145.53
-1107.68
-1128.17
7074.63
22877.2
5604.41
23956.7
4221.53
24806
6700.08
38318.6
8238.2
52704.2
8156.82
38332.1
7841.64
31773.7
8160.77
27773.1
4944.1
3044.52
13235.3
7831.2
4858.12
2616.16
14524.9
7206.63
5360.85
3859.72
16963.1
11892.1
4057.69
2902.59
17044.2
12333
9564.71
4031.62
8237.6
3657.49
3767.09
8899.13
33230.4
9017.23
11883.8
4035.25
42881.4
11660.7
11161.9
3880.76
23687.5
7357.27
12144.2
4244.85
20556.6
6542.02
5572.25
2763.13
8302.95
3223.27
6086.1
3294.21
8264.9
3155.52
7767.73
4418.52
7113.5
3074.64
10595.7
3795.71
3649.24
1270.21
11957.6
8247.38
7422.72
5406.5
13501.6
11098
7386.13
6392.78
6984.39
4681.18
9777.21
6485.15
4907.79
3597.36
2510.86
2055.06
4775.65
4125.77
2492.86
2400.48
4680.31
3047
2411.98
1537.65
6206.8
3363.22
4619.13
5610.78
8440.99
6000.57
6648.98
9562.83
4127.27
1947.52
2733.68
3223.67
2059.28
850.811
1184.93
1196.11
7273.55
13141.6
4950.45
14691.8
8614.98
12886.6
6146.03
15426.5
9830.69
11702.9
7947.85
15120.3
11888.6
14362.9
8778.63
8419.7
9253.78
14330.7
13056.7
12656.3
12892.8
18695.3
11641.7
8817.13
7525.91
8411.47
13300
15194.9
13533.4
17627.1
16846.5
13885.2
12826.5
17422.4
16529.6
12032.5
11689.8
16382.7
15959.5
10431.2
8140.86
9533.23
8230.86
10317.3
9111.35
11001.6
10459.7
15148.5
15391.8
9761.82
8388.53
9172.49
8676.92
9359.49
9768.42
10487
11625.8
13705.8
15680.6
8021.2
6288.6
5529.79
7067.39
10972
13423.9
7627.98
12104.3
4638.19
6135.66
6880.92
5656.09
1316.53
4699.31
697.896
1693.89
3904.52
8158.37
1454.03
2836.67
589.868
3952.18
345.23
1386.33
4534.24
4611.65
5150.63
3168.1
7155.89
5694.43
8417.68
5755.71
1022.19
2523.19
2548.66
1428.25
1433.29
1868.85
2038.3
1535.89
10721.1
6485.45
2033.11
12133.9
6938.81
2266.34
10249.6
6402.85
2150.55
11951.8
6940.21
2261.15
9434.09
5874.43
1924.56
11686.2
6986.03
2329.54
5259.38
2803.22
743.539
6625.12
4344
1511.42
7827.46
5395.37
1858.7
9001.23
5801.07
1920.99
11592.2
7192.46
2515.58
6281.73
3485.29
1090.26
6175.97
4427.98
1664.7
7266.39
5363.98
1961.76
9096.52
6367.4
2268.42
11715.4
7266.17
2569.05
301.945
2001.21
2832.2
4085.19
2144.35
2471.51
5397.75
5128.67
583.472
1026.97
621.973
1066.24
491.225
1417.69
874.391
1860.28
3231.98
1582.76
4081.79
2358.33
2183.75
3807.74
3393.54
969.963
5998.34
1492.64
-1836.32
777.913
1818.96
1376.18
1278.81
1204.28
9918.87
4634.21
2701.14
1707.3
10055.1
4827.08
3401.47
2164.41
9937.33
5202.1
4950.49
3536.15
3542.62
2586.85
1792.96
1726.59
12559.2
11184
5927.04
6161.84
13376.8
12569.7
6606.56
6672.9
5336.59
5506.52
10904.5
9150.9
3556.61
3720.55
2017.5
2276.97
4086.95
4063.84
2271.11
2424.32
3147.48
3388.64
1797.22
2181.62
4820.31
3460.52
4838.7
3540.72
7486.16
4577.75
7186.24
4897.87
2929.05
2507.87
3070.6
2295.89
1670.19
1588.29
1959.8
1349.91
11874
8492.95
6132.11
6388.21
11787.6
8662.18
6168.77
6357.12
12208.6
8934.8
6257.24
6165.8
13780.4
14709.1
12714.9
8655.36
5105.47
13941.8
13093.5
12368.7
10418.8
7022.74
13073.9
11961.8
9703.53
7628.83
4968.55
7427.34
6777.41
7067.53
8259.53
7594.99
6604.91
7112.12
8127.53
7819.15
6461.48
7141.8
7966.33
10527.5
7419.16
9995.5
6998.88
8048.29
6590.05
7715.41
6736.34
6601.91
7852.76
8737.9
7580.68
7864.34
6911.02
6867.72
6309.23
6249.2
6328.75
5228.36
7482.28
7029.23
4763.97
4676.45
2781.57
9049.04
6974.6
6305.39
5052.48
3900.03
2368.44
5660.47
4237.71
4742.16
2240.64
1750.57
1009.7
4962.87
3579.84
1748.42
1446.14
4163.47
1884.76
1650.34
877.424
3361.78
3171.99
3084.02
4595.82
4682.53
4537.23
3951.07
5918.18
3361.08
2245.54
2206.77
3094.17
1041.53
520.83
279.018
611.03
4736.36
1975.81
582.345
5527.42
1428.92
378.966
4750.15
2115.21
647.981
5486.38
1470.33
409.235
4370.38
2064.32
531.939
5358.28
1488.18
347.158
4547.34
2270.91
488.485
4246.57
2028.74
466.899
4309.71
2056.91
551.601
4411.34
2061.87
430.18
5312.6
1452.24
215.469
5809.71
2887.52
754.207
5384.97
2665.59
720.929
5041.81
2485.97
720.025
4934.05
2095.13
509.208
5742.94
1348.62
327.076
1832.71
661.444
127.069
-218.013
757.362
288.912
77.1292
-44.8208
1952.52
731.771
187.11
-134.758
971.976
408.308
195.355
91.2584
2101.58
816.791
284.766
-8.68525
1668.85
790.464
316.314
75.4226
1276.08
733.957
279.348
-1.97253
1208.57
808.778
487.735
297.587
1748.84
785.367
247.559
-187.276
1505.23
666.045
294.977
-191.478
2067.66
807.985
260.107
-140.609
1877.13
736.656
293.344
-316.958
1407.82
736.204
304.082
-56.9436
1159.71
592.939
322.13
4.70955
1047.52
655.192
399.894
251.829
803.38
505.738
344.719
208.154
2353.14
802.244
123.387
-431.401
2352.32
742.756
175.097
-591.583
2352.8
816.118
147.786
-408.986
2276.95
722.616
184.827
-571.045
2310.68
821.441
227.779
-292.1
2125.3
685.168
230.486
-468.143
2026.3
761.093
318.813
-42.4241
2331.32
769.059
328.578
-547.825
1819.15
683.724
322.306
-129.307
1882.88
526.93
159.578
-403.935
754.57
192.275
44.674
-85.3438
1932.32
559.635
179.751
-381.708
779.625
206.35
57.6996
-68.9532
1962.9
600.458
225.496
-335.099
791.574
224.253
75.6604
-50.0962
1768.36
567.421
260.997
-264.478
766.708
231.968
104.283
-16.4804
1618.2
566.062
288.272
-153.808
683.713
245.097
143.504
29.8133
1134.47
461.924
228.708
-44.0852
643.775
323.358
200.831
108.677
1308.54
466.473
226.603
-109.733
648.338
279.521
172.354
69.6082
916.022
450.082
255.277
43.037
580.451
343.181
224.065
146.844
649.63
411.641
286.976
182.38
487.751
344.379
247.504
190.586
-20.5292
8.02071
8.52487
6.12165
4.74478
-3.62246
5.35097
4.72425
3.31385
2.56215
10.5956
24.923
18.3303
12.3504
9.43394
29.6156
24.2439
15.8689
10.4088
7.8922
43.6063
44.6269
30.163
20.0253
15.2612
121.258
82.1189
51.4185
33.416
25.2999
146.353
97.186
60.7818
39.5853
30.0646
212.659
128.856
78.3251