/*--------------------------------*- C++ -*----------------------------------*\
  =========                 |
  \\      /  F ield         | OpenFOAM: The Open Source CFD Toolbox
   \\    /   O peration     | Website:  https://openfoam.org
    \\  /    A nd           | Version:  11
     \\/     M anipulation  |
\*---------------------------------------------------------------------------*/
FoamFile
{
    format      ascii;
    class       volScalarField;
    location    "2.5";
    object      gradTy;
}
// * * * * * * * * * * * * * * * * * * * * * * * * * * * * * * * * * * * * * //

dimensions      [0 -1 0 1 0 0 0];

internalField   nonuniform List<scalar> 
5712
(
11528.7
6647.39
18704.2
12253
20397.6
15094.5
32041.9
39674.9
42106.5
51487.7
27222
23642.4
17296
13699.3
8678.41
5868.8
19392.4
19873.8
16686.8
19623.7
26193.7
23432.5
30181.6
24468.1
8153.96
5888.69
4576.66
3398.56
9772.03
7966.66
5917.13
4774.09
17670
18384.3
18089.3
15338.8
14148.9
11012
11056.9
12545.5
17828.3
17728.1
37324.7
38572.5
26498.6
27276
15057.7
12699.6
16439.9
11729.4
7647.5
7839.51
6221.74
8577.24
3251.77
3883.42
8538.66
11541.1
5073.82
5883.41
9492.22
15725.4
6564.78
10669.5
2509.49
6357.92
2086.64
4751.04
17557.5
21669.1
18063.2
21545.8
21497.8
21734.5
21838.6
21420.2
15337.1
20755.6
15812.2
20521.9
17767
21378.1
17746.1
21316.9
21985.7
21123.3
21892.6
20909.7
14153.6
20831.2
13654.1
20898.9
17173.3
20038.1
21691.7
30094.2
18174.7
23049.9
21484.3
32571.7
16290.9
17680.7
21788.7
28990.8
16121.1
16564.8
22028.2
28799
5010.9
6510.89
12743.5
22053
6252.63
7075.25
16498.4
25229.5
7846.92
7914.59
21041.9
28404
24138.2
26049.7
20303
19499.2
27925.9
26273.4
24718.1
20745.2
17914.4
31779.5
23917.6
23529.2
20865.8
20576.7
36532
1959.44
2344.83
4160.44
9314.31
2793.57
3141.31
5800.2
10543.2
4199.93
3549.92
7952.45
12235.5
26126.5
26016.6
23487.2
23299.9
19985
18489.5
15078.5
13422.5
10530.7
14478.3
23732.5
23087
23829.9
23599
20612.9
19434.1
16951.5
15252.6
11257.5
14705.9
23530.4
26549.8
23437.9
27163.2
22825.9
23719.4
22251.3
23833
21296.6
21688.6
21130.7
21075.3
23241.7
27261.8
23122.6
27221.8
21582.8
24098.2
21391.1
24026.8
21378.2
21640.4
21364.9
21621.3
17852.7
16981.2
11485.1
12734.3
17718
16517.6
11299.1
12732.3
18111.5
16943.1
11742.2
12811.3
18186.2
16775.9
12110.6
12830.8
1620
1120.6
790.434
953.737
673.813
631.665
2243.84
1383.07
1064.51
1894.31
1548.08
1353.07
2647.52
2269.92
2304.9
3345.44
2781.29
2520.45
25151.3
23012.8
21467.6
23056.5
21636.2
20438.5
16495
15503.9
14965.5
11119.5
9803.97
9255.25
5088.52
3831.04
3280
22680
21291.7
20029.5
23165.7
21407.1
19976.8
17079
14913.1
13669.7
11090.8
9043.82
8213.33
5420.46
3820.81
3100.39
26647.3
26162.7
28959.6
26065.1
29801.7
26085.1
35899.5
27405.4
20703.3
21105.4
20418.8
18994.7
23231.7
21961.1
22768
19497.7
22522.6
22421
20797.1
22323.6
27837.6
24902.9
27407.9
27801
29707.6
30695.3
22820.3
23663.9
20468
19857.6
24903.7
25522.8
16300.2
8658.22
15189.1
9603.63
16534.5
8734.26
15130.4
9534.76
16332.5
8785.13
15107.2
9946.68
14672.9
10412.9
14838.8
10326
21006
18047.9
20821.8
17982.9
23149
20977.8
23314.4
20727.7
20419.4
15054.6
21371.4
14891.8
21239.6
17873.1
21486.2
17662.3
23868.2
20530.3
23862.3
20255.6
20178
15079.7
20098.6
14981.4
13390.3
8814.79
11910.3
7441.52
12511.1
7884.19
11467.4
6937.67
13697.6
9378.05
12088.8
7672.9
13703.8
9728.89
12052.1
7726.33
2513.02
1282.29
4497.33
2239.65
2693.23
1603.85
4802.69
2753.1
3345.34
2480.89
5350.64
3732.13
13162
20315.1
9462.66
9059.04
6250.25
19958.6
13967.2
8183.68
8216.63
5097.8
20679
16358.1
13041.9
10123.2
6050.42
658.039
502.099
1127.51
758.861
985.736
680.678
1755.03
1361.54
1787.35
1434.75
2731.17
2197.76
20381.3
19962.6
13918
13560.4
9082.48
9368.53
7636.56
7218.48
4324.17
3544.78
19055.6
17543.1
14880.8
13294.1
11649.1
10589.1
8835.25
8212.14
5343.73
5486.4
15180.9
12534.2
15233.4
12181.2
18112.4
15227.9
18020.5
14941.9
12847.3
10676
12490.6
10758.4
15210.7
11959.8
15109.1
11932.4
17923.6
15183.6
17739.6
15125
13062
10484.1
13036.5
10623.8
10003.7
8711.15
6385.14
7012.24
9656.8
8552.51
6076.01
6663.08
10427.2
8875.49
6549.74
7446.9
10684.5
8879.82
6821.11
7558.7
2014.99
1787.44
1485.67
8896.82
4739.09
3875.6
1941.97
1937.17
1727.77
9582.26
5576.93
4735.18
2647.42
3001.52
3092.37
10486.7
6942.4
6203.92
19107.3
18125.2
17358.8
13292.9
13102.3
12946.6
9861.5
9909.13
9979.18
8643.91
8480.93
8327.19
11839.9
8538.95
7751.89
16247
15233.6
14509.6
12334.7
11701.5
11319.1
10466.6
9900.18
9545.6
10294.7
9269.67
8642.33
14358.1
9624.1
8695.83
4661.91
2942.74
2192.44
2012.21
5306.58
3231.44
2326.52
2060.01
4679.11
2933.22
2195.48
2028.2
5425.2
3299.41
2369.48
2078.09
4648.5
2885.68
2183
2004.64
5530.66
3335.27
2406.13
2057.81
5981.2
3553.18
2482.04
2166.02
6170.38
3702.05
2574.37
2259.89
4973.14
3083.47
2266.84
2022.24
3910.95
2620.24
2042.47
1944.21
4291.12
2749.65
2090.99
1865.09
3549.26
2446.67
1951
1859.37
5427.34
3334.31
2393.89
2127.2
4124.68
2746.83
2101.74
2012.29
5681.84
3503.04
2481.71
2197.89
4214.18
2836.11
2148.55
2046.47
3391.06
2461.84
1966.77
1900.72
1964.39
1876.51
1689.39
1783.16
3389.83
2441.58
1959.48
1894.21
2067.26
1903.91
1699.5
1793.14
3464.74
2428.8
1959.12
1896.57
2400.99
2001.28
1737.31
1839.21
3384.76
2341.98
1905.91
1928.52
2682.46
2064.81
1781.35
1820.45
3061.68
2243.1
1845.23
1828.41
460.02
1393.67
1300.79
388.991
-1298.81
1118.37
1134.67
420.88
715.933
1476.98
1332.36
412.045
-966.257
1212.53
1162.88
430.448
1193.18
1623.75
1383.78
411.13
-408.384
1370.3
1206.22
436.323
1769.62
1795.12
1451.51
448.288
171.499
1541.92
1265.41
456.193
2132.58
1947.17
1534.34
528.786
286.629
1665.96
1319.74
473.423
2277.39
2106.66
1575.14
499.572
-130.475
1782.79
1417.28
503.039
2220.84
2035.97
1544.51
500.29
-154.495
1728.11
1368.79
485.566
2285.31
2156.69
1605.11
463.168
-213.657
1830.86
1452.56
506.671
2339.39
2211.25
1653.41
475.002
-107.737
1887.65
1495.06
520.371
1963.25
1547.36
1093.67
647.993
214.362
1940.37
1544.16
1094.46
648.825
214.652
1987.04
1559.25
1099.62
650.807
215.191
1968.74
1559.38
1102.44
652.689
215.803
2031.31
1576.28
1107.36
654.376
216.235
2003.44
1577.71
1111.88
657.272
217.179
2035.55
1598.88
1124.42
663.713
219.155
2083.8
1629.6
1142.42
672.95
221.989
2077.33
1596.89
1118.55
659.957
217.931
2219.32
1622.45
1125.9
662.737
218.702
2086.88
1591.6
1113.13
656.843
216.938
2216.03
1613.26
1119.89
659.583
217.717
2097.21
1615.58
1129.81
665.779
219.727
2259.65
1640.58
1136.15
667.993
220.325
2143.85
1645.35
1146.74
674.396
222.372
2309.2
1667.1
1150.81
675.442
222.62
2018.84
1555.12
1093.63
647.325
214.109
2124.69
1563.73
1093.86
646.939
213.956
2041.03
1564.48
1098.04
649.365
214.7
2142.22
1570.76
1097.23
648.504
214.413
2085.99
1580.21
1105.02
652.568
215.629
2180.82
1583.57
1103.23
651.319
215.232
2160.7
1598.42
1112.09
655.712
216.532
2227.06
1597.38
1110.12
654.584
216.172
2232.07
1607.83
1116.12
657.588
217.085
9167.69
14042.2
9648.13
14359.2
10365.5
14785.5
10886.1
15088.5
10514.8
14584.7
9846.24
11074
9820.53
11540
9923.6
11015.1
10107.5
11167
8091.01
1382.68
294.654
65.9065
11.6446
8989.42
2554.78
618.927
140.065
24.7398
8194.88
1374.68
290.722
64.7645
11.4104
9092.71
2549.42
615.055
138.496
24.2492
8310.15
1374.17
288.004
63.8563
11.2241
9196.42
2548.93
611.317
137.096
23.9632
8284.08
1339.99
278.194
61.5021
10.8006
9138.66
2507.96
599.042
134.071
23.405
7908.26
1246.93
258.254
57.2509
10.0747
8704.3
2392.4
573.144
128.61
22.4814
7118.06
1167.09
249.568
56.2166
9.9667
7281.83
2097.95
515.702
117.592
20.7463
7340.77
1184.17
250.216
56.0093
9.89805
7676.27
2207.29
537.832
121.677
21.3551
7038.72
1165.37
250.398
56.5434
10.0347
7160.16
2051.55
504.82
115.48
20.4309
7022.34
1158.09
248.675
56.1838
9.96295
7180.53
2043.13
501.536
115.011
20.3162
33009.6
46700.4
45655.5
32054.9
18938.4
19914.6
27925.7
29134.9
21811.4
24412.2
34639
47170.3
43754.7
57882.9
28597.8
32558.8
22473.2
23982.8
12209.4
13376.9
4942.4
3299.45
939.088
737.591
825.709
729.882
876.204
4875.2
4862.74
2959.7
4174.17
4035
1775.76
2423.98
2222.01
1484.35
1703.26
1408.63
4384.41
2432.35
1596.52
1418.99
1777.98
1550.07
1230.78
1172.77
1112.37
983.719
1312.24
1189.29
4565.92
2810.4
3213.06
2082.36
1735.62
2404.04
1257.02
1005.84
1375.57
10102.3
10308.9
10649
12123.2
20261.1
7350.38
8527.76
9444.9
10732.4
12603.8
2475
3548.66
4376.19
4947.09
5244.56
1957.7
2834.67
3521.09
3993.65
4235.8
2188.51
3160.88
3914.79
4428.19
4688.82
1938.77
2809.81
3491.22
3958.4
4196.38
2317.33
3337.33
4125.65
4664.26
4939.76
10301.5
10716.8
10710.9
11517.8
18270.3
10244.3
10472.8
10279.4
10644.3
12238.6
6836.25
8179.94
8925.17
9633.21
10456.3
9073.25
9617.93
9473.65
9488.74
9779.05
8761.37
9361.48
9179.19
9024.5
9068.21
4443.37
5914.15
6873.53
7502.05
7855.73
5787.99
7220.08
8015.91
8555.06
8935.5
5371.73
6799.11
7579.02
8026.9
8266.95
3794.57
5199.71
6166.65
6790.4
7112.36
4278.76
5717.65
6642.76
7214.45
7506.07
3621.95
5001.02
5959.44
6571.52
6878.54
9448.73
10173.9
10475.2
11552.8
18550.9
5814.02
7317.79
8302.26
9176.34
10039.2
4054.89
5515.2
6527.48
7217.48
7611.63
3644.66
5039.65
6047.16
6744.99
7137.88
4451.25
5952.48
6997.82
7774.15
8299.23
3950.39
5413.05
6475.67
7250.29
7723.77
3196.02
4492.88
5470.15
6161.84
6547.13
3060.48
4325.89
5274.34
5925.36
6270.41
2914.29
4136.34
5045.27
5649.21
5954.27
2591.43
3709.1
4558.58
5131.48
5422.57
3396.39
4739.23
5707.41
6350.44
6685.19
3100.3
4372.9
5316.39
5954.2
6287.37
9573.33
10064.4
10451.5
11808.1
19466.8
6468.75
7824.15
8832.42
10005.9
11461.3
7503.56
8888.14
9678.73
10879.1
13347.1
5101.73
6666.84
7805.36
8799.95
9628.1
4366.25
5890.59
7000.31
7864.67
8455.39
5756.86
7287.8
8343.79
9334.87
10327.7
3261.7
4577.64
5560.48
6248.3
6627.42
2645.02
3778.18
4640.73
5228.5
5531.9
3543.42
4922.39
5933.72
6643.73
7045.59
18090.7
12003
18645.8
13303.4
24193.1
34478.1
25269.2
34296.7
19183.6
20319.3
16448
19614
21830.2
20789.3
27733.3
22782.3
13919.4
12968.2
6819.32
5801.96
15179
13834
7837.42
6380.34
18756.1
20288.6
19253.8
17591.7
19592.4
12909.2
10843.5
12502.7
17713.4
17688.2
36749.4
38441.7
25744.8
27067.9
15616.5
12816.6
17080.1
11839.2
8272.94
7989.28
13592.2
15010.1
5690.18
6194.34
14972.5
17040.7
7104
7828.68
14307.9
19928.2
8312.69
12782.2
2911.61
7082.22
2166.56
4892.14
17899.9
20485.4
17836.6
20851.1
19578.7
19879.8
20607.9
20377.4
16242
20561.8
18419.2
20271.1
17543.2
21004.8
17660.7
21195.8
21348.8
20588.3
21704.3
20743.6
14405.9
20700.3
13688.7
20849
18030.6
21270
21906.2
30436.8
19630.8
25150.1
21963.5
33313.8
16675.1
18266.7
21861.8
29134.4
16218.1
16726
22038.7
28835.3
18629.7
20135.6
23303.6
34507.6
18765.5
19219.4
24954.9
34978.5
18526
18217.2
26881.8
34747.5
18110.7
19039.1
19287.2
20450.1
30606.7
18312.4
17062.5
20604.7
18717.8
34948.7
19104.2
19869.7
19647.8
21213.8
37842.2
11264.6
10332.6
10387.8
13384.6
12326.8
11323.3
10769.1
13766.7
13559.4
11793.4
11275
14089.9
17791.7
17169.7
16649.6
16249
19145.1
17963.3
15776.7
14240.5
11819.4
14716.4
18798.4
18649.2
19855.8
20041
18990
17914.7
17172.8
15275.4
11650.3
14247.9
21602.4
24347.2
22453.9
25973.8
20482.7
21428.7
21115.4
22696.6
20749.9
20989
20203.9
19954.5
22757.4
26681.3
22974.9
27048.2
21048.6
23544.7
21232.2
23864.6
21080
21278.8
21270.1
21512.4
17700.4
16697.2
11509.7
12645.8
17602.4
16197.6
11466
12665.9
17999.2
16772.8
11728.9
12746.4
18145.3
16720.4
12100.8
12805.9
9478.69
9621.26
4065.12
3749.45
10573.7
10237.9
4555.43
4364.06
10310.4
9677.36
5191.39
5016.91
16977.4
16510.1
16504.1
16604.5
16403.8
15937
12301
11037.5
6117.78
5063.55
19026.9
18304.4
20246.6
19503.9
16021.9
14896.8
11479.9
9896.82
5631.62
4254.82
21835.8
20806.5
26705
23384.5
24255.5
21667.6
33130.4
25054.4
19978.3
16507
21724.3
17289.1
19869.1
16794.6
21819.7
17515.2
20372.3
18105.6
18481.7
17238.4
21029.2
22236.3
26052.6
27387.2
28554.8
30358.7
21465.7
23183.2
19429.9
19560.6
23378.9
25009
13463.4
9880.23
13874.7
10105.5
13747
9789.41
14056.2
9951.01
13693.7
9643.7
14022.9
10144.1
14049.2
10450.7
14637
10331.6
17147.4
16714.5
18894
17158.1
19608.3
18835.7
21423.8
19531.6
18614.4
14746.7
17738.7
14595.3
20280.1
17433.7
21200.3
17528.8
22942.2
19925.3
23593
20072.3
19284.2
14886.3
19838.6
14921.1
12984
9230.78
12115.7
7817.29
12460
8954.01
12072.2
7738
13380.3
9531.51
12152.7
7847.55
13591.5
9765.22
12068.1
7783.26
13017.8
13303.4
9267.06
8519.02
13171.2
13422.3
9119.51
8446.53
13148.7
12894.3
8885.51
8347.5
15244.4
17919.2
16081.8
11971.8
8635.85
16645.8
15643.5
17549.6
12061.3
8338.58
18348.7
16345.5
14567.4
12225
7667.79
14058
15461.9
8523.8
9328.61
13897
15016.2
8439.17
9185.84
12949.2
13625.1
8049.06
8269.4
16521.7
15750.5
15021.6
14579.7
15685
16297
12278.2
13264
7795
7689.52
16732.9
15447.5
15180
14019.8
13740.1
13328.5
11635.2
11844
7161.38
7841.72
14853.3
12884.6
14913.9
12293.4
16689.1
14288.7
17204.3
14454.2
13007.8
11240.3
13101.5
12037.3
15010.1
12007.6
15046.6
11945.2
17513.9
14944
17617.1
15056.6
13077.8
10729.6
13027.4
10685.9
10504.9
9514.68
6873.05
7752.48
10800.7
10228.4
7043.38
8152.54
10626.7
9234.9
6775.81
7844.73
10741.3
8985.31
6898.31
7684.3
18720
18704
26114.2
21867.2
17907.4
18038.3
25018.5
20884.2
15685.1
16422.5
22933.7
19401.9
15356.8
14900.1
14276.2
14157.7
16665.6
17219.3
15618
15675.5
21032.4
17780.9
14556.4
13933.4
13527.1
13438.9
13965.4
14403.9
15156.9
14878.2
20629.9
16386.9
6156.74
3947.37
2809.33
2455.24
6417.21
4094.39
2898.15
2475.53
6032.42
3866.36
2758.13
2431.65
6352.78
4046.35
2862.26
2437.97
5803.82
3705.6
2671.73
2353.8
6250.16
3936.16
2816.85
2359.15
6401.69
3931.01
2762.8
2382.66
6311.12
3833.34
2668.94
2335.25
5577.05
3555.51
2602.89
2289.4
4311.67
2953.98
2276.44
2144.29
5239.51
3420.19
2524.11
2187.75
4204.61
2961.82
2260.16
2095.09
5761.26
3616.07
2605.77
2299.35
4340.79
2934.64
2249.49
2149.64
5785.2
3597.42
2554.77
2258.3
4282.2
2897.22
2199.2
2093.7
5609.75
3667.56
2640.62
2372.57
4686.41
3253.28
2418.73
2284.56
5444.33
3582.99
2589.92
2333.64
4572.19
3205.96
2392.79
2272.79
5211.2
3445.85
2522.66
2293.53
4488.52
3145.17
2359.97
2271.08
4722.08
3194.54
2386.7
2274.4
4303.01
3042.44
2304.99
2166.91
4034.33
2940.93
2227.45
2089.95
3307.31
2830.41
1975.45
546.237
1152.83
2556.39
1820.11
616.757
3351.68
2830.01
1974.05
565.558
1338.97
2562.01
1816.92
618.872
3429.52
2811.17
1951.17
537.115
1597.21
2551.96
1792.66
603.918
3397.17
2757.95
1951.14
566.363
1639.79
2506.11
1770.98
602.915
3117.75
2646.41
1937.97
646.149
1087.58
2390.1
1731.89
598.456
2571.79
2400.28
1824.1
592.469
-3.08032
2093.65
1636.99
579.612
2767.18
2505.33
1878.87
608.772
188.659
2221.02
1678.99
585.19
2430.2
2316.99
1757.22
523.074
-175.298
1999.45
1581.88
553.96
2380.63
2262.24
1703.78
495.391
-103.201
1940.29
1536.98
536.008
2314.9
1762.57
1215.69
709.448
233.016
2261.46
1748.46
1211.68
708.088
232.658
2313.74
1755.68
1210.83
706.813
232.191
2252.31
1737.87
1204.73
704.406
231.518
2329.76
1749.77
1205.1
703.552
231.16
2242.78
1725.74
1196.53
700.053
230.179
2200.41
1701.68
1183.43
693.588
228.239
2144.43
1668.38
1164.79
684.302
225.446
2297.35
1730.83
1194.25
698.092
229.511
2429.4
1741.81
1192.44
696.155
228.843
2366.74
1750.61
1202.01
701.483
230.481
2487.07
1756.58
1199.22
699.338
229.773
2242.65
1707.55
1182.16
692.209
227.759
2395.76
1721.54
1181.6
690.877
227.277
2194.26
1677.23
1164.98
683.631
225.186
2355.98
1695.31
1166.71
683.479
225.073
2417.94
1783.11
1220.45
710.859
233.367
2587.81
1801.59
1223.76
711.754
233.584
2422.83
1778.82
1217.03
708.959
232.763
2589.34
1797.78
1221.06
710.286
233.123
2442.02
1772.97
1211.63
705.942
231.807
2596.87
1790.35
1215.91
707.548
232.263
2495.33
1770.67
1206.78
703.076
230.888
2608.16
1779.52
1209.55
704.251
231.22
2552.15
1766.63
1203.46
701.292
230.333
11271
14824.9
11335.3
14839.3
11474.4
14851.9
11300.5
14685.7
10580.2
13981.8
9841.54
11010.5
9859.28
11430.6
9910.08
10974.8
10101.1
11152.9
8654.62
1438.7
301.996
67.0168
11.7906
9318.49
2632.41
633.13
142.434
25.0599
8622.52
1415.8
296.06
65.5722
11.5165
9282.5
2601.09
625.006
140.189
24.4775
8520.47
1391.86
290.179
64.183
11.2659
9184.33
2562.63
614.973
137.788
24.0578
8290.98
1336.5
277.462
61.3703
10.7792
8962.52
2489.01
597.004
133.816
23.3691
7832.54
1234.87
256.154
56.8665
10.0149
8491.21
2360.96
568.258
127.798
22.3617
7086.07
1160.86
248.136
55.8961
9.91158
7235.7
2083.55
512.187
116.826
20.6173
7295.33
1174.89
248.223
55.5946
9.82974
7592.15
2184.36
532.975
120.721
21.204
7018.86
1161.7
249.543
56.3458
9.99983
7134.14
2043.53
502.764
115.01
20.3489
7015.52
1156.85
248.389
56.1168
9.95099
7171.8
2040.56
500.869
114.855
20.2884
32555.3
46392
44587.2
30691.5
24011.4
28559.9
23222.2
28452.8
26855.3
42512.6
28454.9
43519.6
256.192
273.531
312.189
374.708
465.461
589.526
270.85
288.63
328.109
391.365
481.355
601.542
245.121
239.66
263.557
259.962
304.783
305.531
371.975
381.139
468.387
488.5
593.828
617.104
752.815
961.646
1233.29
1594.32
2011.03
2310.79
755.313
944.948
1171.88
1426.99
1671.34
1829.89
685.986
1006.52
1264.98
1446.08
1539.33
732.183
1073.8
1348.92
1541.51
1640.6
835.199
1223.82
1536.09
1754.3
1866.46
1001.54
1465.48
1837
2095.93
2228.85
1242.27
1813.64
2268.85
2585.08
2747.19
1569.54
2283.18
2847.54
3238.24
3438.56
725.07
1063.54
1336.26
1527.24
1625.54
772.383
1132.29
1421.88
1624.44
1728.63
877.434
1284.94
1611.97
1840.29
1957.6
1045.44
1528.41
1914.51
2183.39
2321.39
1283.65
1871.92
2339.7
2664.54
2831.2
1600
2324.47
2896.47
3292.79
3496.47
656.396
963.269
1210.84
1384.38
1473.76
641.781
941.878
1184.05
1353.84
1441.29
705.571
1034.99
1300.46
1486.36
1582.04
695.962
1020.96
1282.93
1466.42
1560.85
815.521
1195.31
1500.7
1714.19
1823.94
817.533
1198.31
1504.54
1718.63
1828.67
994.457
1455.61
1825.17
2082.81
2215.04
1018.92
1491.35
1869.87
2133.67
2269.02
1250.44
1826.33
2285.39
2604.21
2767.53
1303.97
1904.06
2382
2713.58
2883.27
1581.79
2302.48
2872.6
3266.69
3468.26
1643.69
2392.1
2983.3
3391.06
3599.14
1995.87
2886.03
3582.68
4064.19
4312.47
2531.18
3624.16
4468.09
5055
5364.17
3205.44
4514.12
5508.04
6216.97
6612.97
4054.23
5554.23
6674.5
7528.96
8074.47
4957.63
6536.55
7703.98
8702.52
9482.02
5579.16
7168.91
8344.61
9442.8
10411.3
2001.03
2890.84
3587.03
4069.4
4319.03
2488.43
3565.65
4399.32
4980.2
5286.19
3058.96
4332.29
5305.76
5995.12
6371.92
3680.46
5132.57
6229.59
7031.48
7498.46
4253.34
5832.41
7014.96
7917.28
8486.17
4616.85
6263.85
7493.7
8462.29
9105.75
259.129
282.449
327.583
397.347
496.335
629.699
273.855
297.744
343.714
413.982
511.432
639.06
248.092
242.74
272.646
269.434
320.609
322.156
395.58
406.278
500.975
522.958
637.821
664.824
801.677
1015.03
1284.02
1632.3
2031.16
2316.47
798.898
991.146
1215.36
1461.6
1692.8
1837.02
693.869
1018.17
1279.74
1463.07
1557.49
756.198
1109.37
1394.07
1593.53
1696.23
876.705
1285.42
1614.44
1844.74
1963.26
1062.71
1556.6
1953.32
2230.61
2373.23
1326
1939.12
2429.99
2772.55
2948.72
1679.14
2448.93
3062.34
3489.93
3710.19
733.155
1075.51
1351.46
1544.78
1644.29
796.955
1168.75
1468.24
1677.96
1785.9
919.559
1347.58
1691.81
1932.61
2056.5
1106.63
1619.73
2031.32
2318.86
2466.76
1365.3
1994.46
2497.32
2848.16
3028.73
1702.37
2479.35
3097.27
3528.17
3750.56
664.376
975.053
1225.76
1401.54
1492.09
650.056
954.092
1199.5
1371.61
1460.26
730.028
1071.17
1346.32
1539.16
1638.47
721.441
1058.63
1330.66
1521.34
1619.53
858.16
1258.52
1581.01
1806.82
1923.03
862.316
1264.68
1588.85
1815.84
1932.66
1058.21
1550.5
1946.21
2222.86
2365.14
1086.84
1592.49
1998.95
2283.1
2429.2
1338.85
1958.87
2455.67
2802.36
2980.57
1397.62
2044.85
2563.4
2925.15
3111
1701.93
2484.47
3108.78
3543.73
3767.41
1774.33
2590.75
3242.09
3695.53
3928.45
2130.46
3092.54
3854.02
4385.55
4661.34
2680.56
3858.62
4782.49
5433.18
5778.34
3351.54
4752.36
5837.77
6623.05
7063.88
4170.29
5756.21
6967.29
7902.21
8498.62
5026.39
6667.43
7902.91
8965.61
9790.4
5600.98
7213.54
8414.57
9537.62
10524.8
2120.85
3074.21
3827.42
4353.64
4627.36
2616.86
3765.43
4665.19
5298.26
5633.5
3181.88
4527.98
5571.5
6318
6727.7
3780.75
5297.25
6458.8
7315.3
7814.97
4317.51
5941.36
7170.18
8113.04
8707.37
4638.69
6301.77
7548.5
8532.2
9185.41
4923.64
3298.37
1002.73
792.49
900.032
790.892
946.367
4540.53
4391.26
2895.07
3646.43
1836.32
2394.99
1563.74
1723.72
1471.92
4234.87
2451.88
1674.93
1500.29
1844.39
1618.88
1294.21
1250.82
1209.57
1074.29
1402.04
1275.83
4511.01
2816.38
3181.5
2114.69
1789.44
2427.77
1328.94
1083.26
1452.15
10100.3
10364.1
10755.9
12298.2
20583.6
7365.13
8577.95
9534.45
10865.3
12778
2653.82
3831.08
4756.9
5406.53
5748.41
2109.11
3067.54
3827.75
4357.36
4630.87
2395.11
3482.4
4342.88
4940.3
5247.7
2107.15
3069.03
3832.91
4363.99
4637.14
2513.62
3645.46
4538.78
5160.7
5482.71
10082.9
11363.3
12183.7
13782.5
21854.5
9966.17
11469.1
12495.7
13937.1
16377.5
6943.57
8853.86
10263
11576.9
12810
8778.93
10714.1
11845.4
13013.9
14028
4715.85
6540.98
7908.04
8896.69
9466.2
5959.8
7938.87
9375.05
10486.1
11213.7
4078.53
5769.95
7058.13
7962.13
8449.86
4467.91
6268.02
7622.97
8577.53
9099.91
3857.96
5492.51
6744.58
7615.6
8076.31
9358.94
10564.6
11396.9
12996.7
20952.4
5995.35
7839.31
9227.7
10479.2
11605.4
4330.69
6062.16
7378.51
8335.53
8889.98
3902.27
5506.7
6740.5
7634.3
8144.14
4695.41
6452.39
7788.3
8825.57
9515.4
4170.72
5816.63
7079.5
8030.7
8612.57
3381.88
4802.64
5905.93
6704.01
7152.09
3289.41
4707.97
5812.08
6593.24
7013.66
3198.15
4608.03
5707.46
6470.47
6867.36
2848.14
4119.53
5117.68
5811.18
6170.66
3677.83
5244.13
6451.79
7299.72
7754.22
3357.8
4809.91
5938.33
6731.46
7154.52
9568.71
10237.5
10791.5
12353.5
20467.3
6525.3
7977.69
9095.69
10383.6
11939.4
7554.33
9197.85
10289.6
11803.3
14600.7
5224.45
6920.86
8209.7
9347.9
10277.8
4544.89
6228.19
7515.1
8540.34
9234.59
5908.46
7689.15
9045.67
10326
11529.1
3475.33
4939.43
6075.12
6892.5
7347.92
2866.14
4135.16
5130.43
5826.27
6191.03
3779.26
5338.02
6540.64
7415.56
7915.81
10017.7
9429.35
8404.68
6980.59
5058.35
1976.68
18428.7
18776.8
21336.1
21997.4
18097
19216.1
20426.7
19820.3
15100.7
18520.4
15759.2
19083
18090.2
16324.4
25187.5
17743.4
17955.5
20167.9
20594.4
17156.8
18258.1
19557.8
19144.9
15048
22361.7
15623.4
22271.7
18271.8
19814.4
27026.8
16985
17072
18690
18879.1
16472.5
17961.2
18402.1
18472.4
17271.2
19829.7
18028.8
19855.8
19853.2
21805.5
24380
16279.4
16385
17374.4
17409.7
16091.6
17814.5
17252.8
17590.7
16226
17383.6
16958.6
16965
18202
19672.5
21140.7
15535.1
15673.7
16493.2
16446.9
15837.3
17715.8
16515
17035.5
15400.6
14403.4
16160.7
13854.9
16789.9
16661.8
17538
15217.3
15397.3
15915.8
15838.2
15493.8
17059.2
16048
16489.8
14736.4
12431.5
15309.6
12202.9
15666.4
14715
15935.2
21308.4
20506.7
22315.4
23419.1
19801.4
19814.9
20824.6
19920.4
18873.1
14031.4
18847.4
14117.9
16757.4
15237.5
18327.1
20151.5
19576.5
20664.9
21384.8
19162.3
19336
19682.8
18927.2
17563.1
13635.1
17563.4
13738.7
15425
13772.7
17032.5
18647.3
18314.1
18699.2
19041.2
18087.2
18273.7
18219.6
17774.8
16761.4
13459.7
16576.3
13205.1
14891.7
12653.3
16832.1
17259.6
17076.4
17224.4
17370.1
16935.3
17064.2
17071.5
16725.8
15942.7
14018.3
15850.8
13701.6
14409.1
12813
17302.8
16582.1
16465.6
16434.2
16495.9
16187
16309.7
16414.9
16206.6
15840.8
15223.4
15783.9
15080.9
14603.1
13413.4
18023
16099.1
15990.3
15992.2
16026.6
15757.8
16058.2
15947.3
15872.1
15818.1
15984
15820.9
15902.9
14765.7
14004.5
18816.8
11340.5
6434.71
18697
12260.1
20418.6
15082.1
32069.6
39688.5
42156.4
51512.5
27270.8
23643
17303.5
13724.9
8417.71
5600.86
19395.5
19876.2
16685.5
19624.7
26206.6
23438.1
30189.9
24472.4
7986.66
5772.06
4422.57
3296.37
9745.01
7957.11
5915.69
4787.4
17665.3
18379.8
18087.9
15339.2
14144.8
11015
11057.8
12547
17829.9
17729.7
37331.6
38577.2
26501.9
27278.3
15058.5
12701.1
16441.4
11730.8
7648.63
7840.59
6110.81
8441.23
3164.92
3787.72
8540.33
11553
5087.8
5899.69
9493.36
15731.4
6570.8
10677.1
2510.83
6360.88
2087.11
4752.17
17558.5
21670.1
18064.6
21546.8
21500.6
21736
21840.9
21421.4
15338.9
20756.8
15812.4
20522.8
17768.2
21379.1
17747.2
21317.8
21987.4
21124.2
21893.7
20910.3
14154.9
20832.4
13655.2
20900.1
17175.2
20041.7
21693.4
30096.7
18176.2
23053.7
21486
32574.5
16292.7
17683.4
21790.3
28993
16122.8
16566.9
22029.7
28801.1
4929.63
6430.97
12571.8
21865.9
6258.05
7079.01
16513.5
25247.7
7849.36
7916.64
21048.6
28411
24138.2
26050.4
20302.6
19500.3
27929.9
26273.9
24718
20744.3
17915
31783.7
23918.5
23529.7
20866.4
20578.2
36535.3
1919.13
2313.64
4075.09
9224.04
2797.9
3145.48
5811.43
10552.7
4201.9
3551.08
7956.14
12237.7
26126.7
26016.6
23487
23299.9
19984.4
18489.2
15079.3
13423.2
10532.6
14479.7
23732.9
23087.1
23830.2
23599.1
20613.4
19434.5
16952.7
15253.5
11258.7
14706.8
23530.9
26550
23438.5
27163.5
22826.5
23719.5
22251.7
23833.1
21297.4
21689.1
21131.4
21075.9
23242.3
27262.1
23123.1
27222
21583.1
24098.3
21391.3
24026.8
21379
21640.9
21365.6
21621.8
17853.7
16982
11485.9
12735
17719
16518.4
11300
12733.1
18112.4
16943.8
11742.9
12811.9
18187.1
16776.5
12111.3
12831.4
1597.72
1103.15
775.978
949.126
668.302
625.112
2250.34
1386.57
1066.12
1900.47
1552.04
1355.42
2648.1
2270.67
2305.73
3346.47
2782.7
2521.85
25151.3
23013.1
21468
23056.7
21636.8
20439.2
16495.3
15504.6
14966.4
11120.2
9804.79
9256.17
5089.19
3831.81
3280.73
22680.1
21291.9
20029.8
23166
21407.6
19977.5
17079.4
14913.7
13670.4
11091.5
9044.45
8214
5420.95
3821.27
3100.8
26651.7
26164
28962.7
26066.4
29815.7
26090.6
35911.8
27410.2
20529.1
21053
20214
18931.3
23201.6
21933.2
22734.3
19470.6
22517.5
22416.7
20797.1
22321.9
27821
24888.1
27408.8
27801.4
29711.1
30697.3
22818.5
23663
20467.1
19856.7
24896.5
25519.4
16304.7
8663.46
15187.3
9610.8
16516
8729.45
15114.7
9531.11
16320.5
8780.6
15096.8
9942.05
14667
10409.4
14835.8
10323.9
21004.3
18047.5
20820.7
17982.6
23151
20978.7
23316.3
20728.3
20414.2
15053.3
21364.7
14890.3
21239.1
17872.8
21485.8
17661.9
23869.5
20530.6
23863
20255.7
20174.9
15078.8
20096.8
14980.5
13387.2
8812.4
11908.7
7440.29
12507.8
7881.83
11465.5
6936.32
13695.3
9376.04
12087.5
7671.87
13702.2
9727.38
12051
7725.47
2500.31
1266.22
4482.95
2221.07
2693.71
1604.94
4802.62
2753.97
3344.5
2480.78
5349.14
3731.55
13162.6
20316.3
9462.31
9057.56
6248.82
19959.5
13967.6
8183.61
8215.56
5096.87
20679.8
16358.1
13040.9
10121.7
6049.25
640.23
480.688
1107.92
749.651
987.13
680.471
1755.27
1360.86
1787.65
1435.42
2731.12
2198.24
20381.6
19962.6
13917.8
13560
9082.15
9368.03
7635.93
7218.21
4323.68
3544.73
19056
17543.1
14880.7
13293.9
11648.5
10588.6
8834.4
8211.69
5342.97
5485.94
15180.7
12533.9
15233.2
12180.9
18112.8
15227.9
18020.8
14941.9
12846.6
10675.5
12489.8
10757.9
15210.4
11959.5
15108.8
11932.1
17923.7
15183.6
17739.5
15124.9
13061.4
10483.6
13035.9
10623.3
10002.8
8710.55
6384.39
7011.58
9655.82
8551.9
6075.18
6662.43
10426.4
8874.93
6549.08
7446.26
10683.8
8879.3
6820.53
7558.13
1979.38
1757.59
1461.72
8847.51
4695.32
3833.56
1939.02
1935.82
1727.79
9578.19
5576.74
4735.42
2648.13
3002.04
3092.79
10486.8
6942.96
6204.59
19107.2
18125.1
17358.8
13292.5
13101.9
12946.3
9860.89
9908.57
9978.73
8643.72
8480.72
8326.99
11839.4
8539.04
7752.11
16246.9
15233.5
14509.6
12334.4
11701.3
11318.9
10466.3
9899.91
9545.4
10294.3
9269.46
8642.19
14357.2
9623.87
8695.8
4662.24
2942.69
2192.48
2011.6
5305.2
3229.75
2325.73
2058.97
4677.94
2932.73
2195.13
2027.98
5424.55
3299.15
2369.27
2077.9
4647.23
2885.19
2182.69
2004.43
5529.39
3334.83
2405.86
2057.6
5979.93
3552.72
2481.79
2165.83
6169.41
3701.64
2574.14
2259.72
4972.12
3083
2266.57
2022.05
3910.28
2619.85
2042.23
1944.03
4290.13
2749.18
2090.71
1864.9
3548.56
2446.27
1950.75
1859.18
5426.38
3333.87
2393.64
2127.01
4124.07
2746.47
2101.52
2012.11
5681.05
3502.65
2481.49
2197.72
4213.66
2835.79
2148.35
2046.3
3390.2
2462.24
1967.36
1900.31
1962.13
1876.05
1689.86
1782.11
3389.01
2441.14
1959.14
1894.01
2066.6
1903.61
1699.25
1793.05
3463.88
2428.37
1958.83
1896.38
2400.38
2000.94
1737.07
1839.06
3383.99
2341.57
1905.64
1928.32
2681.83
2064.45
1781.11
1820.28
3061.03
2242.72
1844.98
1828.2
459.846
1393.25
1301.52
389.047
-1297.24
1116.95
1134.34
420.714
715.324
1476.87
1332.17
412.034
-966.978
1212.61
1162.9
430.48
1192.75
1623.51
1383.61
411.084
-408.668
1370.14
1206.13
436.299
1769.17
1794.82
1451.32
448.234
171.272
1541.67
1265.26
456.146
2132.12
1946.84
1534.13
528.722
286.417
1665.67
1319.56
473.366
2276.99
2106.35
1574.94
499.517
-130.614
1782.5
1417.09
502.979
2220.4
2035.64
1544.31
500.233
-154.653
1727.81
1368.6
485.506
2284.96
2156.4
1604.93
463.121
-213.767
1830.6
1452.39
506.617
2339.08
2210.99
1653.25
474.96
-107.833
1887.42
1494.91
520.323
1961.73
1546.64
1093.36
647.854
214.321
1938.68
1543.26
1094.03
648.629
214.593
1986.98
1559.17
1099.57
650.785
215.185
1968.64
1559.3
1102.39
652.672
215.801
2031.2
1576.2
1107.31
654.355
216.23
2003.32
1577.63
1111.84
657.253
217.176
2035.42
1598.8
1124.37
663.689
219.149
2083.68
1629.52
1142.37
672.925
221.982
2077.19
1596.8
1118.5
659.933
217.926
2219.14
1622.36
1125.84
662.711
218.695
2086.74
1591.51
1113.08
656.82
216.932
2215.86
1613.17
1119.84
659.559
217.71
2097.06
1615.49
1129.76
665.753
219.72
2259.47
1640.48
1136.09
667.967
220.317
2143.71
1645.26
1146.69
674.37
222.364
2309.03
1667.01
1150.75
675.416
222.612
2017.28
1554.5
1093.38
647.216
214.076
2123.2
1563.21
1093.65
646.853
213.935
2041.01
1564.41
1098
649.346
214.696
2142.22
1570.67
1097.18
648.49
214.414
2085.89
1580.13
1104.97
652.548
215.624
2180.73
1583.49
1103.19
651.301
215.23
2160.56
1598.33
1112.05
655.689
216.527
2226.92
1597.29
1110.07
654.563
216.167
2231.9
1607.74
1116.07
657.565
217.079
9118.62
13987.2
9650.44
14360.8
10367
14786.3
10887.1
15089.1
10515.5
14585.3
9846.83
11074.6
9821.17
11540.6
9924.17
11015.7
10108.1
11167.6
8080.07
1373.41
292.27
65.3596
11.548
8973.96
2548.99
617.277
139.672
24.668
8192.43
1375.26
290.833
64.7819
11.4126
9091.1
2548.82
614.844
138.436
24.2376
8309.59
1374.23
288.013
63.8546
11.2233
9196
2548.73
611.238
137.071
23.9579
8284.14
1340
278.193
61.4998
10.7999
9138.7
2507.91
599.016
134.061
23.4026
7908.52
1246.96
258.257
57.2507
10.0745
8704.53
2392.43
573.142
128.607
22.4805
7118.42
1167.15
249.579
56.2188
9.96704
7282.19
2098.05
515.723
117.596
20.7469
7341.11
1184.22
250.225
56.0106
9.89821
7676.6
2207.36
537.845
121.678
21.3552
7039.09
1165.43
250.41
56.546
10.0351
7160.53