/*--------------------------------*- C++ -*----------------------------------*\
  =========                 |
  \\      /  F ield         | OpenFOAM: The Open Source CFD Toolbox
   \\    /   O peration     | Website:  https://openfoam.org
    \\  /    A nd           | Version:  11
     \\/     M anipulation  |
\*---------------------------------------------------------------------------*/
FoamFile
{
    format      ascii;
    class       volScalarField;
    location    "2.5";
    object      T;
}
// * * * * * * * * * * * * * * * * * * * * * * * * * * * * * * * * * * * * * //

dimensions      [0 0 0 1 0 0 0];

internalField   nonuniform List<scalar> 
5712
(
539.645
555.458
529.473
548.59
514.717
539.128
489.12
518.144
488.696
511.674
511.545
534.01
525.345
544.773
534.391
551.701
506.326
486.822
525.639
497.403
478.89
458.471
498.258
467.865
547.583
555.007
560.001
564.075
537.673
546.856
553.932
559.707
538.072
523.365
516.351
506.715
534.767
548.261
544.321
544.012
507.269
511.31
521.347
520.492
477.5
480.875
551.196
553.265
526.789
532.699
560.04
562.663
560.031
567.827
567.187
570.806
553.49
565.246
563.898
569.484
540.378
559.655
551.195
564.886
559.289
568.022
562.432
569.129
473.039
461.443
480.114
463.741
441.858
431.494
449.419
434.129
506.941
491.771
500.419
489.38
485.22
464.845
486.595
464.643
454.638
435.519
456.079
435.473
511.655
492.887
512.979
492.76
530.414
556.815
518.842
548.634
524.355
553.195
515.822
545.728
534.771
558.919
520.299
550.174
536.146
559.689
520.384
550.869
554.147
542.425
564.469
555.83
544.838
533.195
560.738
550.959
530.753
519.875
554.172
543.625
458.916
422.398
490.285
515.56
545.979
416.954
453.454
484.939
508.902
536.932
422.182
455.493
485.275
511.415
539.97
521.579
503.695
526.203
509.109
515.819
499.237
524.22
506.941
506.615
491.121
521.072
503.997
407.182
395.216
444.887
432.802
475.118
462.14
498.299
484.14
519.462
503.57
411.227
398.126
446.043
436.108
476.208
465.84
501.424
489.292
522.432
508.637
449.399
444.32
447.697
442.822
415.405
397.055
415.211
395.933
477.442
475.816
479.234
476.49
445.205
441.547
445.102
441.634
414.365
395.742
414.474
395.975
474.646
474.535
474.519
474.684
504.706
503.039
526.553
524.144
505.203
502.006
526.2
521.82
503.269
502.603
526.452
524.724
501.915
501.706
525.307
523.657
484.89
470.833
463.663
487.825
472.607
465.159
481.729
467.454
459.981
485.773
470.018
462.187
473.881
459.556
452.007
482.735
465.819
457.345
382.64
374.134
370.191
419.035
407.278
401.087
447.061
432.76
424.796
466.957
451.567
443.509
481.216
462.35
452.711
384.101
373.397
368.323
424.361
411.771
405.104
451.917
436.451
427.742
471.374
452.835
442.665
483.374
461.908
450.615
413.187
404.433
418.799
410.166
444.388
429.451
454.726
436.975
389.296
366.915
390.503
368.91
390.576
369.659
392.458
371.804
392.105
388.139
391.435
385.923
373.012
376.73
414.322
417.188
442.411
445.238
395.433
399.877
395.356
398.113
379.855
383.129
345.051
327.647
350.509
331.139
347.672
328.202
353.057
332.186
351.827
328.909
359.049
334.115
363.021
337.337
365.04
339.356
387.197
377.857
394.705
381.39
412.767
402.637
420.193
405.865
374.233
360.416
366.897
356.874
399.02
383.401
400.948
384.074
424.766
407.633
426.439
407.944
378.403
362.532
380.474
363.402
354.662
331.304
343.347
325.267
347.881
327.096
340.069
322.818
358.823
334.448
345.362
326.88
361.139
336.615
346.296
327.793
328.449
316.963
320.785
313.054
330.658
319.619
321.078
313.781
335.024
325.679
321.984
315.963
368.292
391.75
350.927
338.071
321.789
386.867
363.661
344.342
332.019
317.818
391.46
368.215
349.603
335.082
319.819
307.218
297.995
305.245
296.698
310.312
301.03
306.652
298.222
316.484
307.096
309.41
301.042
376.775
365.067
353.856
342.521
336.652
326.565
324.453
314.699
312.79
304.401
380.175
365.925
357.663
344.077
340.614
328.574
327.301
315.95
314.897
305.687
361.848
343.8
364.966
345.824
384.864
365.248
387.281
365.913
346.798
330.559
343.844
328.316
367.603
347.131
368.351
347.751
389.001
366.291
389.485
366.738
349.47
332.133
350.247
332.708
330.709
316.54
316.553
305.272
329.095
314.795
315.771
304.589
332.141
317.813
317.083
305.489
333.693
318.531
317.994
306.349
288.259
283.606
281.805
282.735
279.005
277.758
291.65
286.503
284.477
284.373
280.462
279.037
297.931
292.322
290.014
286.937
282.362
280.631
353.665
346.249
342.896
332.16
325.782
323.092
316.891
310.848
308.5
304.456
297.914
295.104
288.795
283.397
281.273
352.29
342.769
338.708
331.572
322.921
319.234
316.846
308.935
305.692
303.478
296.28
293.56
287.598
282.549
280.594
314.25
305.53
299.619
294.764
315.816
306.123
299.759
294.684
314.343
305.631
299.746
294.881
316.367
306.434
300.018
294.917
314.301
305.725
300.051
295.259
316.799
306.753
300.436
295.331
318.306
307.551
300.646
295.285
319.598
308.388
301.088
295.517
315.782
306.582
300.588
295.583
313.711
306.129
300.744
296.189
313.83
305.723
300.341
295.729
312.557
305.514
300.462
296.193
317.398
307.399
300.877
295.629
314.684
306.707
301.057
296.386
318.691
308.166
301.301
295.941
315.506
307.254
301.442
296.738
311.702
304.636
299.494
295.057
308.655
303.623
299.349
295.514
311.706
304.683
299.601
295.183
308.886
303.738
299.431
295.603
311.825
304.807
299.819
295.465
309.566
304.039
299.621
295.783
311.607
304.868
300.051
295.865
310.102
304.319
299.856
296.049
311.311
304.937
300.247
296.284
306.149
302.877
299.082
296.34
304.667
302.506
298.983
296.624
306.661
303.072
299.189
296.424
305.237
302.716
299.084
296.692
307.591
303.441
299.368
296.547
306.214
303.095
299.257
296.808
308.713
303.924
299.663
296.761
307.316
303.563
299.502
296.975
309.771
304.486
300.025
296.998
308.224
304.06
299.789
297.18
311.235
305.537
300.638
297.389
309.52
305.109
300.505
297.707
310.547
305.025
300.322
297.177
308.881
304.59
300.133
297.426
311.848
306.026
300.934
297.597
310.156
305.645
300.878
297.998
312.5
306.523
301.298
297.899
310.849
306.19
301.279
298.325
289.838
286.288
283.648
281.914
281.056
289.832
286.297
283.655
281.919
281.06
289.906
286.325
283.669
281.927
281.066
289.922
286.347
283.685
281.937
281.074
290.001
286.373
283.696
281.944
281.079
290.031
286.407
283.72
281.959
281.091
290.166
286.49
283.77
281.992
281.115
290.361
286.609
283.843
282.039
281.151
290.127
286.446
283.739
281.971
281.1
290.249
286.487
283.759
281.983
281.108
290.081
286.408
283.715
281.955
281.087
290.188
286.447
283.735
281.967
281.096
290.247
286.52
283.785
282.001
281.122
290.363
286.554
283.801
282.01
281.129
290.434
286.631
283.853
282.044
281.155
290.527
286.651
283.859
282.048
281.157
289.862
286.284
283.642
281.909
281.053
289.893
286.282
283.638
281.906
281.05
289.915
286.311
283.657
281.918
281.06
289.933
286.302
283.65
281.913
281.056
290.002
286.353
283.681
281.933
281.071
290.005
286.339
283.67
281.926
281.065
290.098
286.396
283.704
281.948
281.082
290.085
286.382
283.695
281.941
281.077
290.15
286.421
283.719
281.957
281.088
532.969
530.353
532.497
529.887
531.972
529.497
532.157
529.806
534.054
531.795
537.907
538.34
536.843
536.461
538.283
538.999
538.355
538.918
564.911
571.272
572.611
572.913
572.978
558.093
569.405
572.188
572.822
572.957
564.962
571.296
572.618
572.915
572.979
558.138
569.437
572.195
572.825
572.958
564.97
571.312
572.623
572.916
572.979
558.152
569.461
572.204
572.827
572.958
565.175
571.37
572.637
572.919
572.98
558.385
569.53
572.221
572.831
572.959
565.718
571.487
572.662
572.925
572.981
559.048
569.678
572.252
572.838
572.96
566.168
571.536
572.668
572.925
572.981
560.765
570.014
572.317
572.85
572.963
566.074
571.533
572.669
572.926
572.981
560.127
569.885
572.293
572.846
572.962
566.176
571.53
572.666
572.925
572.981
561.048
570.08
572.33
572.852
572.963
566.218
571.54
572.668
572.925
572.981
561.082
570.099
572.333
572.853
572.964
427.608
463.415
461.005
423.255
406.467
407.954
409.821
412.701
421.615
425.585
451.761
460.821
459.689
469.393
435.701
440.246
423.39
426.773
416.616
418.674
370.451
352.588
305.765
299.29
302.223
299.052
303.829
368.554
362.704
344.966
352.334
349.007
325.435
335.62
331.51
319.564
323.446
317.866
365.276
338.839
322.583
318.759
326.768
322.32
314.264
312.63
310.774
307.087
315.942
312.925
367.07
345.51
353.63
334.168
326.837
339.385
314.927
307.748
317.884
351.838
335.484
320.835
305.111
286.214
341.04
328.887
315.456
300.552
283.259
302.479
297.871
291.833
284.742
276.991
296.708
293.048
288.204
282.484
276.223
299.333
295.245
289.851
283.5
276.566
296.497
292.87
288.068
282.397
276.192
300.762
296.439
290.75
284.062
276.757
350.117
332.889
317.913
302.525
285.17
344.307
327.206
312.556
297.862
281.91
334.607
322.977
310.067
296.202
281.167
336.531
321.05
307.382
293.888
280.169
333.935
318.833
305.477
292.474
279.562
319.22
311.217
301.477
290.596
278.971
327.136
317.044
305.476
292.996
279.81
323.733
314.283
303.335
291.546
279.255
314.369
307.438
298.77
288.938
278.399
317.485
309.758
300.332
289.83
278.688
312.936
306.296
297.933
288.417
278.218
348.705
332.605
318.148
302.838
285.321
330.326
320.181
308.372
295.274
280.843
316.995
309.62
300.45
290.038
278.797
313.793
307.116
298.674
288.975
278.439
320.545
312.526
302.688
291.532
279.366
316.895
309.694
300.656
290.267
278.905
309.956
304.06
296.477
287.65
277.992
308.526
302.862
295.548
287.039
277.772
306.88
301.475
294.471
286.339
277.524
303.644
298.821
292.517
285.145
277.122
311.35
305.097
297.132
287.975
278.081
308.763
303.03
295.644
287.081
277.782
349.877
334.011
319.656
304.222
286.01
335.673
324.698
312.201
298.201
282.183
341.921
328.665
315.153
300.278
283.089
326.879
317.821
306.879
294.405
280.479
320.762
312.87
303.091
291.87
279.497
330.97
320.912
309.107
295.881
281.103
310.528
304.514
296.795
287.832
278.05
304.228
299.31
292.893
285.388
277.208
313.07
306.566
298.303
288.765
278.372
506.25
543.133
499.766
538.165
476.713
519.808
482.967
524.841
488.532
475.065
518.591
491.694
464.255
449.935
492.691
463.905
522.685
536.479
551.47
557.832
516.497
529.982
547.585
554.614
531.216
506.829
510.305
494.155
520.253
542.471
542.204
543.533
504.95
510.747
519.608
520.085
475.957
480.507
548.924
552.767
524.357
532.119
558.266
562.296
549.9
564.495
563.628
569.61
543.772
562.031
560.797
568.387
531.153
556.623
546.749
563.38
557.702
567.457
562.115
569.008
468.918
461.146
477.528
463.791
440.931
433.659
448.602
435.567
503.593
491.12
494.769
487.914
484.066
465.006
486.312
464.737
454.355
436.389
456.052
435.789
510.112
492.662
512.574
492.726
527.673
555.859
518.156
548.383
519.75
551.58
514.425
545.215
533.478
558.45
520.016
550.067
535.797
559.556
520.319
550.842
537.284
522.831
559.121
549.193
529.499
515.876
555.777
544.964
518.014
506.145
550.034
538.948
460.143
432.644
485.519
509.864
543.859
429.718
455.831
479.421
501.81
534.263
430.313
457.183
483.435
509.14
539.119
503.035
489.513
518.573
506.064
499.295
486.401
517.97
505.015
493.213
480.725
516.909
503.713
422.829
414.202
448.924
439.342
471.429
460.584
492.891
480.948
518.034
505.116
422.09
411.285
449.871
442.452
476.06
468.498
500.385
490.928
522.378
510.798
451.603
447.977
449.237
445.22
420.971
405.123
418.341
400.546
477.949
476.918
479.531
477.885
446.141
442.867
445.415
442.05
416.031
398.107
415.007
396.702
475.055
475.219
474.668
474.907
504.793
503.508
526.643
524.441
504.957
502.593
526.188
522.326
503.408
502.914
526.54
524.903
501.978
501.821
525.343
523.718
481.184
477.519
495.212
490.291
478.118
473.905
493.935
488.11
472.231
467.934
492.056
484.956
406.75
401.6
431.755
426.228
452.535
446.568
471.986
466.099
491.71
482.186
401.221
395.121
435.977
429.193
460.523
452.29
479.499
469.34
492.811
480.383
411.022
404.391
419.668
411.15
436.621
425.307
452.938
435.542
393.302
373.995
396.829
376.363
392.817
375.852
396.796
378.041
395.129
390.23
394.363
389.167
378.438
381.444
415.156
417.505
442.021
445.189
397.452
400.58
397.241
398.779
382.93
384.234
358.666
340.265
360.432
341.433
360.131
339.921
361.476
341.061
362.959
339.348
365.659
341.355
367.026
341.876
366.439
340.942
393.657
385.293
398.041
385.76
415.572
407.762
421.481
408.924
379.333
365.524
376.134
365.376
400.801
385.764
401.52
384.842
425.514
409.317
426.708
408.507
381.134
365.311
381.337
364.298
361.189
337.399
348.526
329.757
358.763
335.913
348.383
329.546
362.4
338.065
348.23
329.469
362.269
337.804
347.223
328.64
355.042
349.914
337.428
332.671
356.413
351.619
336.881
332.353
358.668
354.94
336.096
332.317
388.318
408.766
371.625
355.485
333.373
407.271
388.227
371.308
354.499
331.41
405.156
383.864
364.522
347.748
328.909
343.434
335.692
325.953
315.661
345.922
338.693
326.329
316.441
349.864
343.416
326.93
317.563
400.858
393.018
382.094
375.115
365.475
359.478
348.613
341.836
326.501
317.52
397.062
385.196
376.28
364.834
357.72
346.997
341.27
330.26
324.247
314.435
371.82
355.375
370.365
352.106
393.632
376.5
391.914
371.986
352.295
336.363
353.495
338.614
370.337
350.285
369.202
348.702
391.328
369.34
390.212
367.658
352.32
335.087
351.136
333.602
335.666
321.258
320.464
308.687
337.425
322.85
321.927
310.087
334.818
320.286
319.274
307.357
334.567
319.315
318.69
306.921
329.12
326.858
298.758
296.987
333.039
330.359
299.94
297.948
338.044
333.889
301.284
297.424
386.007
380.981
368.649
364.149
353.576
349.541
334.496
328.652
300.353
294.354
374.613
369.646
354.638
350.158
336.922
332.745
318.211
313.619
294
289.455
322.823
311.033
303.197
297.091
323.405
311.132
303.06
296.848
322.34
310.804
303.099
297.025
322.999
310.866
302.951
296.831
321.421
310.401
303.123
297.217
322.224
310.427
302.916
296.962
321.843
309.993
302.307
296.389
320.857
309.269
301.69
295.924
320.253
309.672
302.733
297.054
317.202
308.652
302.583
297.55
319.902
309.815
303.124
297.576
317.573
309.04
302.932
297.916
320.173
309.352
302.257
296.607
316.761
308.234
302.203
297.279
319.637
308.838
301.778
296.28
316.199
307.768
301.832
297.047
321.639
310.779
303.446
297.635
319.822
310.379
303.675
298.395
321.17
310.588
303.401
297.637
319.543
310.258
303.613
298.373
320.403
310.267
303.365
297.734
319.138
310.041
303.502
298.339
319.065
309.767
303.299
297.969
318.509
309.75
303.408
298.373
317.72
309.297
303.212
298.289
317.954
310.017
303.636
299.662
316.641
309.812
303.7
300.209
317.89
309.94
303.596
299.639
316.612
309.738
303.65
300.173
317.68
309.767
303.462
299.529
316.452
309.575
303.525
300.083
317.225
309.476
303.328
299.428
316.054
309.312
303.371
299.973
316.402
309.044
303.156
299.337
315.259
308.935
303.167
299.84
314.551
308.017
302.477
298.878
313.109
307.854
302.523
299.346
315.411
308.538
302.83
299.12
314.115
308.42
302.876
299.624
313.788
307.51
302.063
298.545
312.233
307.281
302.101
299.004
313.136
307.015
301.676
298.22
311.519
306.724
301.681
298.658
291.177
287.084
284.127
282.221
281.289
291.112
287.063
284.118
282.216
281.285
291.129
287.051
284.106
282.207
281.279
291.04
287.016
284.088
282.197
281.271
291.079
287.01
284.08
282.19
281.265
290.957
286.96
284.054
282.174
281.253
290.81
286.876
284.003
282.142
281.229
290.605
286.755
283.932
282.096
281.194
290.96
286.94
284.037
282.163
281.244
290.987
286.92
284.02
282.15
281.235
291.065
286.987
284.063
282.179
281.257
291.071
286.963
284.044
282.166
281.247
290.821
286.862
283.991
282.133
281.222
290.865
286.851
283.979
282.125
281.215
290.634
286.751
283.925
282.091
281.19
290.703
286.755
283.921
282.088
281.187
291.269
287.108
284.136
282.226
281.293
291.348
287.124
284.142
282.229
281.295
291.236
287.084
284.121
282.216
281.285
291.321
287.106
284.13
282.221
281.289
291.188
287.046
284.096
282.2
281.273
291.269
287.07
284.108
282.207
281.278
291.156
287.012
284.073
282.184
281.261
291.2
287.028
284.082
282.19
281.265
291.125
286.989
284.059
282.175
281.254
530.288
528.859
530.464
529.004
530.976
529.506
532.133
530.547
534.425
532.717
538.067
538.562
537.071
536.854
538.383
539.125
538.389
538.96
564.592
571.23
572.605
572.912
572.978
557.652
569.325
572.175
572.82
572.957
564.728
571.265
572.613
572.914
572.978
557.844
569.381
572.186
572.824
572.957
564.87
571.3
572.621
572.916
572.979
558.072
569.44
572.2
572.827
572.958
565.195
571.374
572.638
572.92
572.98
558.49
569.541
572.222
572.832
572.959
565.787
571.499
572.664
572.925
572.981
559.226
569.705
572.257
572.839
572.961
566.205
571.544
572.67
572.926
572.981
560.848
570.034
572.322
572.851
572.963
566.129
571.544
572.672
572.927
572.981
560.259
569.913
572.299
572.847
572.963
566.197
571.535
572.667
572.925
572.981
561.095
570.091
572.333
572.853
572.964
566.226
571.542
572.668
572.925
572.981
561.097
570.103
572.333
572.853
572.964
427.81
463.212
460.182
423.808
417.34
423.381
414.982
422.486
444.135
460.35
447.972
462.294
282.427
283.053
284.448
286.693
289.916
294.245
282.958
283.597
285.015
287.272
290.449
294.618
282.023
281.824
282.691
282.561
284.184
284.213
286.604
286.937
290.038
290.757
294.425
295.248
299.767
306.487
314.553
324.018
333.096
339.042
299.812
305.97
312.94
320.213
326.599
330.573
281.53
280.241
278.51
276.446
274.172
282.095
280.719
278.874
276.672
274.249
283.356
281.786
279.684
277.178
274.421
285.381
283.501
280.985
277.99
274.697
288.287
285.957
282.846
279.15
275.091
292.181
289.241
285.332
280.699
275.617
282.01
280.648
278.82
276.639
274.238
282.586
281.135
279.19
276.87
274.316
283.866
282.218
280.011
277.382
274.491
285.903
283.94
281.317
278.197
274.767
288.764
286.358
283.149
279.339
275.155
292.513
289.518
285.54
280.828
275.661
281.165
279.931
278.275
276.299
274.122
280.985
279.778
278.159
276.226
274.098
281.769
280.443
278.664
276.541
274.205
281.651
280.343
278.588
276.494
274.189
283.117
281.585
279.531
277.083
274.389
283.143
281.607
279.548
277.094
274.392
285.302
283.434
280.935
277.959
274.686
285.603
283.689
281.128
278.08
274.727
288.398
286.052
282.919
279.196
275.107
289.048
286.601
283.335
279.455
275.195
292.347
289.383
285.44
280.765
275.639
293.088
290.009
285.912
281.059
275.739
297.133
293.403
288.475
282.655
276.282
303.121
298.413
292.249
285.009
277.084
310.236
304.32
296.694
287.796
278.043
318.438
311.058
301.775
291.035
279.189
326.058
317.218
306.448
294.106
280.34
330.954
321.149
309.447
296.115
281.119
297.168
293.431
288.495
282.67
276.287
302.662
298.032
291.965
284.834
277.025
308.838
303.177
295.841
287.26
277.856
315.218
308.458
299.821
289.769
278.726
320.749
313.003
303.252
291.958
279.5
324.169
315.808
305.377
293.327
279.99
282.537
283.389
285.032
287.559
291.117
295.845
283.071
283.942
285.61
288.143
291.624
296.115
282.134
281.939
283.033
282.916
284.783
284.841
287.506
287.898
291.306
292.109
296.185
297.176
301.789
308.83
317.011
326.207
334.591
339.57
301.603
307.951
314.921
321.924
327.76
330.984
281.63
280.326
278.575
276.486
274.186
282.4
280.979
279.072
276.797
274.292
283.885
282.238
280.029
277.395
274.495
286.169
284.173
281.499
278.313
274.807
289.38
286.891
283.563
279.601
275.245
293.641
290.493
286.294
281.306
275.825
282.113
280.735
278.886
276.681
274.252
282.9
281.402
279.394
276.998
274.36
284.407
282.679
280.364
277.604
274.566
286.694
284.616
281.835
278.522
274.878
289.834
287.272
283.85
279.78
275.306
293.878
290.688
286.44
281.396
275.855
281.266
280.017
278.341
276.34
274.136
281.089
279.867
278.227
276.269
274.112
282.079
280.707
278.865
276.668
274.248
281.973
280.617
278.797
276.625
274.233
283.66
282.048
279.885
277.305
274.464
283.713
282.093
279.919
277.326
274.472
286.121
284.133
281.469
278.295
274.801
286.476
284.435
281.699
278.438
274.85
289.553
287.039
283.676
279.672
275.269
290.279
287.655
284.144
279.964
275.369
293.953
290.76
286.499
281.434
275.868
294.849
291.521
287.077
281.795
275.991
298.983
294.997
289.706
283.435
276.549
305.277
300.281
293.701
285.933
277.402
312.517
306.314
298.26
288.801
278.391
320.493
312.88
303.225
291.978
279.518
327.482
318.497
307.48
294.788
280.583
331.463
321.609
309.822
296.365
281.209
298.807
294.841
289.584
283.359
276.523
304.482
299.605
293.186
285.609
277.291
310.668
304.768
297.084
288.053
278.13
316.808
309.851
300.916
290.474
278.971
321.835
313.961
304.011
292.45
279.672
324.554
316.149
305.649
293.504
280.052
371.26
353.278
308.601
301.574
305.413
301.597
306.905
378.145
376.456
354.461
366.91
332.964
345.25
326.105
330.502
323.624
371.642
345.624
328.845
323.892
332.604
326.803
317.508
316.626
315.696
311.249
321.446
317.54
369.605
347.515
358.117
337.2
330.674
344.603
318.753
311.39
322.388
352.719
336.31
321.55
305.63
286.426
341.734
329.533
316
300.93
283.404
305.091
300.138
293.598
285.867
277.378
298.8
294.85
289.598
283.367
276.526
302.263
297.777
291.815
284.749
276.994
298.829
294.88
289.622
283.381
276.53
303.592
298.891
292.656
285.274
277.174
360.974
343.368
326.87
308.787
287.628
359.844
342.114
325.115
306.378
284.927
344.328
332.183
317.767
301.394
283.036
353.223
337.012
320.821
302.947
283.391
326.537
317.899
306.914
294.174
280.224
336.868
326.173
313.051
298.048
281.593
320.632
313.088
303.322
291.914
279.436
324.469
316.236
305.665
293.367
279.932
318.473
311.314
301.995
291.081
279.148
355.637
339.342
323.958
306.953
287
337.043
326.412
313.525
298.729
282.087
322.983
315.016
304.796
292.88
279.79
318.641
311.435
302.121
291.214
279.218
326.149
317.596
306.792
294.231
280.315
321.137
313.481
303.687
292.243
279.595
312.979
306.716
298.571
288.998
278.459
312.248
306.133
298.124
288.696
278.345
311.463
305.497
297.639
288.375
278.227
307.489
302.168
295.131
286.815
277.697
316.538
309.711
300.806
290.356
278.907
313.074
306.828
298.645
289.013
278.45
352.619
336.592
321.883
305.828
286.675
337.658
326.531
313.725
299.244
282.574
346.524
333.012
318.843
302.84
284.05
329.799
320.47
309.036
295.841
280.993
324.411
316.144
305.726
293.599
280.105
336.106
325.664
313.039
298.527
282.06
314.102
307.663
299.284
289.438
278.606
307.599
302.25
295.193
286.859
277.714
317.306
310.324
301.292
290.702
279.045
280.641
295.412
308.929
320.626
329.871
336.789
488.032
482.311
459.47
465.08
473.082
464.406
450.217
439.981
506.775
521.667
500.619
514.001
491.676
483.435
502.772
478.69
474.047
451.795
456.316
466.226
458.552
444.083
435.28
497.299
508.102
491.923
501.416
483.604
475.965
491.63
465.732
462.332
441.096
444.421
456.239
450.007
435.114
427.657
482.855
493.35
478.559
488.053
472.171
465.707
480.084
452.408
449.892
429.925
432.478
445.026
439.657
425.093
418.651
469.296
480.441
465.837
476.093
460.644
454.459
469.031
442.783
440.742
421.792
423.955
436.523
431.874
417.568
411.664
459.082
470.977
456.13
467.49
451.936
446.475
461.336
436.275
434.466
416.24
418.207
430.681
426.606
412.326
406.829
452.371
465.856
449.666
462.465
446.181
441.311
456.31
411.107
408.04
433.135
437.331
403.771
398.473
426.293
417.9
389.137
369.126
388.179
370.725
384.465
383.863
373.275
407.032
404.169
427.564
431.223
400.168
395.219
421.488
413.691
384.676
365.275
383.87
367.039
380.379
380.223
369.383
400.536
397.999
419.256
422.219
394.436
389.892
414.184
407.429
380.093
360.456
379.226
362.066
376.046
375.825
364.233
392.444
390.226
409.848
412.282
386.893
382.353
405.549
399.219
373.299
354.383
372.544
355.823
369.641
369.381
358.034
385.936
383.914
402.729
404.877
380.917
376.609
398.853
393.013
367.429
349.78
366.769
350.878
364.363
364.051
353.154
381.27
379.382
397.784
399.772
376.767
372.925
394.16
388.734
363.661
346.665
363.134
347.75
360.978
360.86
350.277
540.246
555.968
529.504
548.547
514.729
539.109
489.109
518.125
488.683
511.651
511.563
533.995
525.397
544.751
535.103
552.347
506.323
486.814
525.625
497.392
478.876
458.457
498.24
467.851
548.038
555.314
560.363
564.308
537.672
546.842
553.878
559.665
538.052
523.358
516.338
506.707
534.756
548.239
544.315
544.007
507.26
511.303
521.337
520.485
477.488
480.865
551.188
553.261
526.781
532.693
560.034
562.66
560.24
567.908
567.333
570.859
553.471
565.238
563.871
569.474
540.366
559.65
551.179
564.88
559.282
568.02
562.429
569.128
473.03
461.435
480.105
463.734
441.847
431.485
449.408
434.121
506.933
491.765
500.411
489.373
485.212
464.838
486.587
464.636
454.627
435.511
456.07
435.466
511.648
492.881
512.972
492.755
530.406
556.812
518.837
548.632
524.347
553.192
515.817
545.726
534.766
558.917
520.295
550.172
536.142
559.688
520.38
550.867
554.42
542.733
564.58
555.981
544.815
533.171
560.727
550.944
530.741
519.862
554.166
543.618
458.909
422.39
490.278
515.552
545.975
416.947
453.447
484.932
508.894
536.928
422.174
455.486
485.269
511.409
539.967
521.883
503.939
526.408
509.276
515.8
499.23
524.213
506.941
506.605
491.115
521.067
503.996
407.176
395.212
444.881
432.798
475.112
462.135
498.292
484.135
519.459
503.568
411.221
398.122
446.037
436.104
476.203
465.836
501.419
489.289
522.429
508.635
449.393
444.315
447.691
442.817
415.399
397.05
415.205
395.928
477.436
475.812
479.228
476.485
445.199
441.542
445.096
441.629
414.359
395.737
414.468
395.97
474.641
474.53
474.514
474.679
504.702
503.036
526.55
524.141
505.199
502.003
526.197
521.818
503.265
502.6
526.45
524.722
501.911
501.702
525.304
523.654
485.092
471.005
463.826
487.982
472.745
465.285
481.73
467.458
459.985
485.778
470.028
462.197
473.88
459.558
452.011
482.737
465.824
457.351
382.637
374.132
370.191
419.033
407.277
401.087
447.059
432.76
424.797
466.955
451.568
443.512
481.216
462.352
452.715
384.098
373.396
368.323
424.358
411.77
405.104
451.915
436.45
427.743
471.372
452.836
442.667
483.373
461.91
450.619
413.14
404.405
418.752
410.139
444.356
429.431
454.694
436.955
389.2
366.928
390.367
368.892
390.499
369.609
392.385
371.762
392.063
388.094
391.406
385.892
372.973
376.694
414.301
417.173
442.395
445.225
395.405
399.86
395.334
398.097
379.83
383.113
345.07
327.64
350.51
331.12
347.651
328.195
353.042
332.182
351.805
328.901
359.027
334.106
363.003
337.329
365.028
339.35
387.18
377.845
394.687
381.38
412.752
402.626
420.179
405.855
374.215
360.406
366.879
356.863
399.005
383.391
400.936
384.065
424.754
407.624
426.428
407.936
378.389
362.523
380.463
363.395
354.648
331.297
343.339
325.262
347.868
327.089
340.06
322.812
358.811
334.441
345.354
326.875
361.13
336.609
346.29
327.788
328.404
316.9
320.775
313.038
330.654
319.618
321.073
313.777
335.015
325.674
321.978
315.958
368.281
391.741
350.916
338.061
321.783
386.859
363.651
344.333
332.012
317.813
391.451
368.205
349.594
335.075
319.814
307.159
297.929
305.24
296.691
310.312
301.034
306.648
298.218
316.482
307.096
309.406
301.039
376.769
365.063
353.849
342.517
336.646
326.562
324.448
314.697
312.786
304.398
380.168
365.92
357.656
344.073
340.607
328.569
327.295
315.946
314.892
305.684
361.84
343.795
364.959
345.819
384.856
365.242
387.274
365.908
346.791
330.554
343.837
328.311
367.596
347.126
368.345
347.747
388.995
366.286
389.479
366.733
349.464
332.129
350.241
332.704
330.704
316.536
316.549
305.269
329.089
314.791
315.767
304.586
332.136
317.81
317.079
305.487
333.689
318.528
317.991
306.346
288.191
283.527
281.72
282.746
278.993
277.738
291.657
286.511
284.484
284.369
280.463
279.039
297.932
292.325
290.016
286.936
282.363
280.631
353.662
346.248
342.895
332.158
325.781
323.091
316.889
310.848
308.5
304.455
297.915
295.105
288.794
283.397
281.273
352.287
342.767
338.707
331.569
322.92
319.234
316.844
308.934
305.692
303.476
296.279
293.56
287.597
282.549
280.594
314.243
305.524
299.611
294.755
315.798
306.11
299.748
294.673
314.339
305.629
299.745
294.88
316.364
306.433
300.017
294.917
314.297
305.723
300.05
295.258
316.795
306.751
300.435
295.33
318.302
307.549
300.645
295.284
319.595
308.387
301.087
295.516
315.778
306.58
300.586
295.582
313.707
306.127
300.742
296.189
313.826
305.721
300.34
295.728
312.553
305.512
300.461
296.192
317.394
307.397
300.876
295.629
314.681
306.705
301.056
296.385
318.688
308.164
301.3
295.94
315.503
307.252
301.441
296.737
311.699
304.632
299.488
295.048
308.649
303.619
299.345
295.507
311.703
304.681
299.6
295.183
308.884
303.736
299.43
295.602
311.822
304.805
299.818
295.464
309.563
304.037
299.62
295.782
311.604
304.866
300.05
295.864
310.099
304.317
299.855
296.048
311.308
304.935
300.246
296.284
306.143
302.873
299.078
296.333
304.656
302.5
298.979
296.62
306.66
303.071
299.188
296.423
305.236
302.715
299.083
296.691
307.589
303.439
299.367
296.546
306.212
303.093
299.256
296.807
308.71
303.923
299.662
296.76
307.313
303.561
299.501
296.974
309.768
304.484
300.023
296.997
308.221
304.058
299.788
297.179
311.232
305.534
300.636
297.388
309.517
305.107
300.504
297.706
310.543
305.022
300.32
297.176
308.878
304.588
300.131
297.425
311.846
306.024
300.933
297.596
310.153
305.643
300.876
297.996
312.497
306.521
301.297
297.898
310.846
306.188
301.277
298.323
289.834
286.287
283.647
281.913
281.056
289.827
286.294
283.654
281.918
281.06
289.906
286.325
283.669
281.927
281.066
289.922
286.347
283.685
281.937
281.074
290.001
286.373
283.696
281.944
281.079
290.03
286.407
283.72
281.96
281.091
290.165
286.49
283.77
281.992
281.115
290.361
286.608
283.843
282.039
281.151
290.127
286.446
283.74
281.972
281.1
290.249
286.487
283.759
281.983
281.108
290.081
286.408
283.715
281.955
281.088
290.187
286.447
283.735
281.967
281.096
290.247
286.52
283.785
282.001
281.122
290.362
286.554
283.801
282.01
281.129
290.434
286.631
283.853
282.045
281.155
290.527
286.651
283.859
282.048
281.157
289.859
286.282
283.641
281.909
281.052
289.89
286.28
283.637
281.906
281.05
289.915
286.31
283.657
281.918
281.06
289.932
286.302
283.65
281.913
281.056
290.002
286.353
283.681
281.933
281.071
290.004
286.339
283.67
281.926
281.065
290.098
286.396
283.704
281.948
281.082
290.084
286.382
283.695
281.942
281.077
290.15
286.421
283.719
281.957
281.088
533.035
530.429
532.507
529.896
531.974
529.5
532.157
529.806
534.053
531.794
537.906
538.338
536.841
536.459
538.282
538.997
538.353
538.916
564.966
571.286
572.614
572.914
572.978
558.128
569.415
572.191
572.822
572.957
564.959
571.295
572.618
572.915
572.979
558.142
569.438
572.196
572.825
572.958
564.97
571.312
572.623
572.916
572.979
558.153
569.461
572.204
572.827
572.958
565.174
571.37
572.637
572.92
572.98
558.385
569.53
572.221
572.831
572.959
565.718
571.487
572.662
572.925
572.981
559.048
569.678
572.252
572.838
572.96
566.168
571.535
572.668
572.925
572.981
560.764
570.013
572.317
572.85
572.963