/*--------------------------------*- C++ -*----------------------------------*\
  =========                 |
  \\      /  F ield         | OpenFOAM: The Open Source CFD Toolbox
   \\    /   O peration     | Website:  https://openfoam.org
    \\  /    A nd           | Version:  11
     \\/     M anipulation  |
\*---------------------------------------------------------------------------*/
FoamFile
{
    format      ascii;
    class       volScalarField;
    location    "0.8";
    object      gradTx;
}
// * * * * * * * * * * * * * * * * * * * * * * * * * * * * * * * * * * * * * //

dimensions      [0 -1 0 1 0 0 0];

internalField   nonuniform List<scalar> 
5712
(
-8061.09
-10313.8
-18858.4
-27787
-28476.2
-48976.5
-21622.1
-54749.5
-17410.9
-38189.6
-26032.9
-39739
-23171.4
-30710
-10253.9
-11813.8
-18600.3
-21366.5
-23608.8
-23474
-18347.4
-22399.5
-26812.2
-23971.3
-6747.71
-5263.77
-8360.76
-5797.64
-15773.5
-12991.4
-26626.9
-19731.9
-20525.6
-21487.8
-23329.5
-22899.3
-8747.46
-6580.08
-47700.1
-63902.5
-31104.8
-38128.6
-63001.9
-81992.3
-32782.9
-37582
-35942
-50780.2
-31743.1
-41888
-18870.9
-30126.6
-3805.61
-1302.9
-3972.83
-1451.41
-11435.6
-4684.29
-15448.5
-5777.68
-11376.1
-4324.48
-11632.8
-3782.73
-19564.8
-6307.66
-25219.9
-8618.26
-28765.2
-14653.4
-26458.1
-15668
-26250.4
-17001.9
-23250.5
-17077.4
-21513.2
-12947.6
-21623
-11407.6
-27421.9
-17218
-27561.4
-17313.8
-24676.8
-17925.6
-25010.6
-17913.6
-23213.8
-14706.5
-24060.2
-15025
-22312.8
-10009.7
-10767.6
-13551
-22321.4
-11022.9
-9601.72
-13994.3
-23628.3
-9883.99
-12034.6
-13503.6
-24844.3
-10103.6
-13001.5
-14025.1
-4902.01
-5386.56
-1694.8
-3532.54
-14102.2
-14947.6
-5713.08
-10702.9
-18045
-19682.4
-9438.48
-16310.6
-12176.8
112.486
-15251
-20243.6
-11810.5
545.587
-6491.23
-14237.1
-23806.6
-18854.1
-11716.3
-14874
-13907.5
-12796.8
-20492
-4464.04
-3483.83
-2627.29
-2547.91
-12330.6
-9756.73
-7949.48
-7396.31
-15055.5
-11678.3
-10387.5
-9058.94
-5232
-6940.26
-11417.2
-12092.9
-15734.9
-14044.1
-18059.2
-15027.5
-13844.1
-11583.4
-9566.4
-9101.79
-12979.4
-8853.18
-12451.1
-7758.85
-11399.8
-6773.35
-14398.9
-8887.12
-10939.5
-3532.1
-9806.81
-9546.01
-13134.6
-15860.6
-14603.9
-20183.6
-8232.7
-8067.32
-10049.7
-1461.29
-8886.14
-15852.7
-8482.96
-17224.9
-14526.5
-25140.5
-14768.3
-26943.1
-7218.33
-14273
-6696.8
-15439.8
-10243.8
-6804.67
-14782.7
-5230.08
-9933.55
-239.933
-12622
622.963
-10045.5
-10762.2
-15559.1
-6827.21
-8526.05
-12872.9
-13991.3
-9052.5
-2523.9
-2058.65
-1598.56
-1861.56
-1584.44
-1272.92
-7226.82
-5127.02
-3869.02
-4997.73
-3437.23
-2602.41
-8114.68
-6074.06
-5184.86
-5900.24
-4054.36
-3485.89
-5459.46
-4016.74
-3615.52
-9913.95
-6149.38
-4582.89
-10293.1
-6241.12
-4348.68
-10673.1
-7088.74
-5541.69
-7987.23
-4423.17
-3008.02
-14059.5
-10325.6
-7736.1
-9907.35
-7012.67
-4837.47
-9766.95
-6363.91
-4100.2
-9011.11
-5477.92
-3346.9
-10552.6
-5223.29
-2364.71
-11540.9
-15300.2
-9409.09
-11828.3
-13189
-18873.6
-12050.5
-16950.7
-8.56924
-691.008
490.896
-180.737
-3086.34
-3280.83
-1455.74
-852.497
-1111.48
-2752.13
-10024.9
-14217.4
-6589.83
-4011.24
-11181.7
-11129.6
-17888.1
-19731.5
401.942
4272.73
-8219.4
-7653.97
-7480.69
-5710.23
-1032.41
-535.428
-784.302
-388.477
-2088.61
-215.318
23.5365
564.329
-9264.23
-2162.6
-6601.32
-1714.91
-9282.45
-2729.65
-11077.8
-3312.41
-10007
-12329.6
-9125.05
-11951.8
-16428.5
-16501.9
-15553.9
-15506.1
-5954.72
-8945.77
-6924.03
-8929.97
-9575.06
-11471
-10419.2
-11478.8
-16170
-15167.7
-16855
-15127
-5935.5
-8607.77
-6328.85
-8653.03
253.311
-808.678
-6268.35
-3093.21
653.856
-475.732
-5805.58
-2708.34
-127.467
-1037.96
-6359.01
-3364.95
-434.371
-1198.26
-6289.93
-3410.48
580.517
657.574
-147.172
30.3995
2503.98
2423.8
208.262
431.387
489.488
1606.69
-1200.12
-528.095
9604.4
10042.2
4914.93
3700.33
588.643
10845.2
10140.7
3637.18
5240.38
957.615
-11194.1
-8344.71
-6674.5
-5533.87
-2630.5
572.873
449.799
80.9769
51.9007
1871.6
1544.23
277.581
178.885
1914.82
1983
-185.45
-210.206
4800.2
1615.04
7021.73
3687.95
2774.51
1712.11
3091.77
2292.15
91.4272
-367.915
-4128.11
-2501.59
-1415.68
494.096
-1009.94
428.334
-1123.11
-68.8641
-872.736
-847.395
-5085.55
-4315.43
-9437.53
-5522.13
-8335.86
-7747.01
-12495.4
-9680.12
-6720.36
-3720.44
-3356.9
-3036.34
-11073.9
-4812.82
-12084.6
-5352.36
-13895
-9926.68
-14757.7
-10692.3
-8163.13
-3048.6
-9058.59
-3496.89
-4458.16
-3055.51
-2428.46
-3355.72
-2744.67
-2725.07
-2011.62
-3084.18
-5173.97
-2946.26
-2738.45
-3855.99
-6350.17
-3172.56
-3693.01
-3932.95
357.032
316.281
329.425
37.6641
111.036
114.704
1308.94
1176.32
1084.02
157.441
322.651
300.765
1789.2
1655.83
1530.52
-164.145
325.558
396.287
579.967
475.919
206.633
2047.47
1928.62
1659.39
1519.22
1550.32
1432.63
1912.73
1755.69
1573.54
-509.815
135.976
179.552
-3521.52
-1945.36
-1060.73
124.846
755.617
1047.56
218.023
894.478
1137.8
90.0855
738.109
887.211
-987.502
166.257
289.746
6.22738
7.49181
6.9207
10.771
147.46
60.6909
38.5428
26.2491
-20.4194
6.82055
43.4626
51.9343
218.265
97.4779
99.082
74.9256
-176.448
-31.2684
63.9998
100.181
9.57282
43.7908
62.0836
56.4882
-59.0125
14.9787
13.4463
12.3159
-184.503
-39.0923
21.2099
34.387
-640.596
-164.894
-33.0547
25.9843
-892.043
-224.187
-74.61
63.1766
-433.79
-94.7893
11.5316
73.1985
-727.293
-174.637
-76.8644
47.2496
-680.9
-181.716
-13.1184
52.5666
-996.512
-259.186
-79.9188
79.5831
-728.732
-206.928
-7.86172
71.4158
-1059.01
-284.666
-88.5086
81.6244
3.78023
3.98168
7.38185
15.1526
29.828
13.1506
2.12361
13.1171
44.8972
22.0542
32.3162
46.2598
119.972
48.3315
12.9691
37.3844
-250.74
-61.4322
14.7734
69.9795
-92.4729
-7.4948
2.24971
62.826
-38.4129
28.5488
48.7993
79.4453
14.1029
32.0818
-1.12529
62.1224
-611.348
-139.046
-59.6362
80.9739
54.2512
21.5244
8.86528
12.3348
94.1818
33.6592
12.7192
7.25521
116.273
50.0505
14.1809
28.8996
245.782
89.715
30.3534
17.8061
83.5467
51.4631
14.3734
45.025
325.768
125.788
44.3365
26.8077
-20.6791
39.7977
14.6254
62.7258
284.389
133.521
49.0687
31.691
-280.764
-16.5993
-26.4828
48.785
128.695
108.723
36.5668
28.4317
-686.301
-111.129
-51.8282
49.4004
-205.27
2.29862
6.2114
17.4889
-510.803
-57.3698
-42.4624
45.1792
-87.5315
49.512
21.6829
23.8231
-828.827
-161.922
-64.5218
53.3803
-295.548
-35.428
-3.81365
14.0278
-920.511
-201.788
-77.0678
49.8814
-361.982
-66.0126
-13.6811
10.3251
4.91382
1.66354
0.5891
0.223135
0.106461
6.7078
2.43967
0.913392
0.356763
0.172969
11.7319
3.78726
1.33003
0.503945
0.240841
14.2006
5.20344
1.96479
0.772636
0.376438
15.3616
4.67382
1.62101
0.613748
0.293752
18.1214
6.69184
2.53775
1.00235
0.490056
8.5468
3.20686
1.22515
0.488009
0.240423
6.30723
1.93558
0.672234
0.257427
0.124954
13.943
4.51165
1.60413
0.615917
0.2974
6.54961
1.87283
0.63267
0.238079
0.114083
15.8103
5.29553
1.94408
0.757711
0.368015
6.54054
1.922
0.662752
0.251193
0.120474
10.4832
2.9331
0.973929
0.363755
0.173956
6.15725
1.61796
0.532806
0.19969
0.095896
9.63665
2.07699
0.569183
0.191148
0.0868261
5.30584
1.00474
0.2549
0.0824315
0.0368409
4.20712
1.32629
0.455476
0.169667
0.0801677
3.34225
1.09806
0.385779
0.14481
0.0685136
10.621
3.27926
1.13627
0.427466
0.203242
8.81715
2.83964
1.00375
0.379905
0.180776
14.2958
3.99723
1.3427
0.500648
0.237556
11.8442
3.79372
1.35849
0.520208
0.249506
13.1014
4.2664
1.56249
0.607853
0.294629
8.19646
2.80294
1.03503
0.402518
0.194649
6.57603
2.26643
0.851044
0.334881
0.163317
-76.4525
-312.743
5.90044
-708.002
425.388
-775.938
1312.3
-322.3
2086.08
969.299
-316.065
-1056.37
1447.63
1295.23
-1149.66
-2100.36
-1670.39
-2539.38
-976.784
-236.376
-55.2351
-12.7518
-3.41961
-233.25
-136.402
-18.9946
-5.59419
-2.67283
-2997.34
-720.898
-169.066
-38.8589
-10.443
-528.564
-168.403
-45.6025
-10.4062
-3.14832
-4986.89
-1202.16
-283.061
-65.3804
-17.5674
-893.09
-298.628
-79.0974
-19.9409
-5.52403
-6584.5
-1593.62
-377.602
-87.713
-23.6732
-1060
-381.87
-103.869
-26.3608
-7.27011
-8070.17
-1975.47
-472.571
-110.678
-30.1173
-1211.17
-475.355
-132.084
-33.7881
-9.41018
-9249.29
-2339.74
-570.243
-135.505
-37.3274
-2154.24
-699.362
-182.484
-44.7056
-12.2622
-8730.3
-2199.79
-532.656
-125.695
-34.3927
-1553.73
-573.279
-155.999
-39.2131
-10.8013
-9458.57
-2396.39
-585.951
-139.731
-38.6461
-2513.87
-779.937
-199.558
-48.0813
-13.1305
-9825.63
-2468.95
-604.895
-144.333
-39.9491
-2643.73
-819.047
-210.785
-47.3718
-13.6108
-744.655
-8386.29
-7660.5
-2737.58
1779.26
3010.82
8313.03
12281.1
1539.77
8847.54
-2633.33
2090.38
2354.7
5189.98
10265.9
14768.7
15567.3
19727.2
6361.95
8287.56
-19720.6
-13719.2
-2801.37
-1745.01
-1203.29
-1585.73
-1794.56
-11478.3
-9382.24
-8410.24
-7890.91
-5678.47
-4187.96
-6072.35
-3333.56
-2814.6
-3172.13
-2163.64
-18853
-8649.97
-2337.69
-4216.05
-6643.84
-4286.83
-4273.53
-2992.51
-1536.95
-2108.75
-2591.49
-2862.02
-19211
-11923.5
-11076.6
-7592.41
-6915.32
-7852.64
-2514.31
-2969.61
-4571.17
-12947.4
-10148.3
-7472.26
-5782.9
-4071.95
-8525.9
-5541.06
-3871.8
-2562.49
-1126.99
-2403.47
-1924.11
-1388.62
-837.895
-281.193
-1524.58
-1242.26
-908.479
-551.394
-184.818
-1046.37
-847.284
-615.249
-371.073
-123.886
-1391.76
-1138.82
-835.111
-507.235
-169.901
-1556.16
-1257.14
-911.914
-550.249
-183.926
-6868.12
-4765.19
-3273.15
-2511.06
-2196.57
-4753.32
-3154.75
-1961.51
-1390.94
-857.427
-5145.38
-3064.95
-1983.62
-1225.99
-519.25
-3883.81
-2427.74
-1462.08
-916.867
-464.034
-2563.84
-1510.32
-864.008
-514.295
-219.937
-3209.22
-2305.5
-1522.46
-870.88
-290.109
-4074.73
-2605.59
-1649.24
-938.622
-328.752
-2143.34
-1283.67
-758.219
-400.993
-130.615
-2253.32
-1678.86
-1136.63
-656.182
-216.353
-2458.18
-1772.77
-1163.92
-655.397
-212.964
-1753.94
-1320.61
-899.613
-519.485
-170.328
-11676.5
-8145.51
-5807.84
-4314.16
-3327.7
-6094.48
-4206.97
-2860.54
-1764.21
-712.26
-1884.26
-1417.99
-972.343
-569.5
-190.882
-3449.12
-2640.97
-1843.75
-1097.4
-372.889
-5235.85
-3912.33
-2708.01
-1630.96
-581.288
-3519.02
-2709.81
-1906.31
-1144
-391.188
-3568.73
-2789.93
-1982.61
-1192.7
-404.623
-2525.52
-1987.84
-1414.58
-846.848
-284.087
-1291.42
-1007.77
-707.98
-417.493
-138.104
-1811.82
-1448.71
-1040.85
-623.784
-207.904
-2141.61
-1646.7
-1145.6
-673.832
-223.955
-2406.66
-1885.6
-1334.93
-795.396
-266.027
-12409.6
-9335.39
-6855.29
-5108.92
-3601.19
-7890.55
-5344.32
-3736.41
-2431.01
-1074.38
-7712.22
-5706.05
-3926.41
-2540.54
-1086.95
-5708.73
-4098.54
-2853.58
-1770.76
-665.274
-5533.31
-4199.74
-2945.13
-1788.96
-635.106
-5858.41
-4185.26
-2898.69
-1790.96
-663.957
-2079.04
-1606.71
-1129.56
-674.573
-228.272
-2549.03
-2038.13
-1466.52
-881.29
-294.523
-3804.86
-2960.28
-2092.81
-1253.28
-423.522
-7028.37
-14471.2
-14729.4
-41076.5
-14176.3
-53698.4
-7866.21
-19217
-14215
-10891.6
-24140.5
-19953.9
-13780.7
-12561.3
-26500.3
-20539.6
-5241.41
-3958.38
-10336.7
-7250.83
-11710.2
-8885.39
-31982.9
-24032.3
-19023.6
-14128.5
-19795.8
-11714
-1354.43
-4839.81
-50257.4
-65019.4
-30176
-38037.6
-65109.8
-82930.8
-31681.9
-37334.1
-38022.6
-51871.4
-30949.1
-41956.1
-21200.6
-31291.2
-2613.9
-707.276
-4649.52
-1600.79
-8883.93
-4074.39
-18129.1
-6625.32
-3892.13
-2273.81
-9599.94
-3070.65
-19780.6
-6289.16
-25560.2
-8716.3
-19218
-10336.5
-22794.3
-13515.3
-16743.9
-12238.4
-19505.7
-14820.9
-18951.6
-11226.3
-14808.2
-8057.24
-26058.5
-16270.8
-27235.6
-17059.4
-23196.5
-16940.4
-24616
-17648.4
-22348.5
-13938.6
-23877.1
-14817.2
-21304.7
-9751.62
-9658.47
-13216.5
-18979.5
-10081.5
-7473.99
-13280.6
-23507.1
-9876.41
-11543.2
-13366.4
-24891.8
-10129.3
-12873.4
-13991.5
-1502.57
-1427.1
-407.947
-1881.69
-6112.34
-6522.79
-4034.87
-8400.45
-3854.04
-4766.73
-6534.61
-12521.7
-12732.8
-9134.3
-11026.8
-14469.6
-10344.5
-6887.35
-8061.25
-8688.32
-16924.9
-16639.1
-13398.7
-12162.3
-9318.81
-8594.48
-18580.5
-1572.9
-1164.23
-938.758
-1056.47
-5771.5
-4470.51
-5132.24
-4533.21
-1305.85
133.251
-6198.71
-4897.42
-9634.12
-10200.4
-9198.35
-8541.88
-8124.83
-5893.99
-10978.3
-8585.71
-11269.4
-8788.1
-11859.8
-11216.1
-10736.6
-7366.16
-8513.08
-4945.9
-8093.51
-4460.38
-13101.4
-7534.82
-9639.65
-3975.42
-8844.53
-9355.91
-13131.1
-16698.1
-14006.7
-20016
-7273.79
-7874.43
-8496.61
-1803.28
-8380.75
-15629.3
-8327.6
-17138.2
-14094.4
-24995.4
-14621.4
-26851.4
-6740.75
-14102.4
-6554.47
-15376.5
-9662.05
-6780.86
-14692.8
-5381.55
-8920.94
-864.176
-12577.2
-464.578
-9766.59
-10688.7
-15518.8
-6844.69
-8434.69
-12842
-13975.2
-9053.29
-1093.88
-1001.65
-843.288
-962.793
-3380.21
-2503.8
-3258.36
-2982
771.918
92.9387
-3786.77
-4053.79
-9860
-8856.61
-7760.86
-6197.23
-4719.54
-3699.54
-6797.93
-5439.53
-7407.93
-5280.14
-16999.7
-13770.8
-8152.5
-6080.12
-6928
-4457.39
-6289.75
-3349.66
-7358.55
-2568.11
-5698.73
-9299.22
-4831.81
-9753.17
-9279.05
-11241.6
-10596.4
-14381.5
-878.286
-529.225
-487.728
-337.969
-3411.49
-2115.06
-2506.92
-986.954
-769.923
-1308.14
-8088.46
-8509.06
-3978.19
-3365.56
-9977.1
-10733.8
-16506.6
-19294.1
730.725
4352.79
-7189.01
-7283.12
-6865.79
-5518.44
-847.18
-706.852
-857.762
-661.37
-1325.97
-644.125
-119.677
4.58671
-7182.52
-2723.72
-6069.59
-2192.38
-8736.55
-2945.14
-10833.7
-3378.05
-5303.88
-10089.7
-7221.97
-10671.7
-9256.91
-12450.9
-12632.7
-13563.9
-4902.78
-8331.37
-4251.43
-8191.2
-8635.19
-10861.6
-10123.1
-11305.2
-14863.7
-14303.6
-16470
-14889.8
-5390.54
-8279.07
-6144.47
-8554.58
244.904
-1079.83
-6237.38
-3319.48
279.335
-1074.21
-6102.86
-3134.86
-99.3248
-1203.76
-6297.64
-3481.05
-412.347
-1258.42
-6264.51
-3446.75
-839.17
-877.421
-712.952
-703.693
-1587.78
-1554.4
-827.657
-806.868
-7134.58
-6259.95
-2600.75
-2415.27
-2948.97
-4254.48
-3304.63
498.474
-701.742
-395.337
-821.082
-3415.96
2621.26
-10.3436
-14779.9
-11632.1
-9405.18
-7164.09
-3502.89
-837.031
-692.995
-734.904
-814.763
-1488.15
-1130.82
-1005.83
-1269.55
-6115.81
-5579.7
-2532.3
-3002.42
-4369.15
-6049.51
-2430.66
-4280.6
-4012.29
-4220.49
-437.792
-843.621
-1291.62
-1982.54
-9365.51
-7189.38
-6805.99
-4629.54
-5245.01
-3509.4
-3913.18
-2582.66
-2061.21
-2074.27
-7158.9
-6741.29
-9925.2
-6224.57
-9861.52
-10030.8
-12547.4
-10233.5
-7426.23
-4372.43
-5254.62
-4987.99
-11098.2
-5150.12
-12056.7
-5408.87
-13677.2
-10154.5
-14659.6
-10705.7
-8365.86
-3387.4
-9091.05
-3568.15
-5129.84
-3578.03
-2972.57
-3854.63
-4218.19
-4128.04
-2926.31
-4041.73
-5451.32
-3243.32
-3008.16
-4136.77
-6419.8
-3251.59
-3771.06
-4005.5
-506.228
-445.237
-581.702
-469.107
-1003.5
-1187.85
-825.18
-698.373
-5146.03
-4470.01
-1923.54
-912.777
-6938.73
-6230.01
-5110.19
-4317.6
-3910.49
-3263.32
-1206.79
-1266.14
-1876.64
-935.24
-7678.72
-6115.75
-4089.03
-3171.35
-2919.02
-2032.37
-1837.65
-1058.25
-1904.11
-94.9455
-98.572
-38.1696
-13.0674
2.42922
-45.1158
-26.2284
1.87188
10.8832
-278.699
-104.998
1.5998
36.7433
-158.711
-79.1018
27.3057
45.0324
-503.933
-172.463
14.7923
87.1922
-404.982
-159.827
-31.1458
12.3219
-301.621
-110.62
-46.5607
-14.4896
-282.454
-92.9501
-4.70964
22.4938
-843.374
-265.068
-82.8874
0.319656
-1016.65
-279.427
-99.7652
57.8675
-769.579
-236.604
-49.2271
46.0213
-906.569
-245.008
-107.231
43.5644
-817.24
-254.035
-47.0126
38.4777
-1073.78
-296.47
-98.4594
73.8943
-781.822
-236.288
-21.7431
65.5347
-1085.9
-298.298
-95.3957
79.5218
-99.9158
-35.0113
-7.02028
10.9237
-84.3639
-25.5574
-13.5368
8.863
-251.767
-88.0227
-6.59756
33.9077
-204.649
-62.9831
-30.8956
24.8097
-563.236
-176.958
-24.6628
61.2267
-496.202
-145.468
-51.7924
49.8336
-579.019
-174.295
-26.0994
54.9486
-439.838
-124.431
-58.0322
55.1245
-896.271
-237.198
-97.803
83.6347
-60.065
-17.52
-4.89354
7.65583
-24.2195
-8.66273
-1.99476
0.876177
-183.854
-52.314
-24.8486
14.8222
-80.7439
-26.6007
-11.3021
-0.112387
-337.928
-91.7981
-40.6975
25.4979
-168.664
-49.4439
-17.446
0.554067
-521.042
-134.559
-51.0847
41.6916
-303.811
-77.2617
-24.1516
1.08981
-701.038
-171.021
-91.4243
23.8038
-410.974
-95.6614
-38.4982
-4.47001
-945.72
-229.507
-105.174
27.806
-429.063
-101.934
-38.1987
-3.54251
-893.945
-215.165
-110.435
18.1927
-460.826
-106.433
-40.0033
-4.8295
-969.456
-231.058
-97.0163
40.3802
-407.795
-93.1496
-29.3581
2.18648
-963.233
-223.797
-87.6578
45.6037
-393.458
-83.2221
-21.5444
6.65358
0.807969
-0.241911
-0.217181
-0.114539
-0.064697
-0.691058
-0.815445
-0.442179
-0.208791
-0.113618
2.2456
-0.601682
-0.52348
-0.272292
-0.152828
-2.05205
-1.98288
-1.03881
-0.483752
-0.261337
3.81829
-0.71592
-0.655214
-0.339802
-0.190078
-3.54166
-2.78747
-1.41484
-0.651016
-0.349682
-2.38844
-1.54984
-0.763074
-0.346251
-0.184282
0.815738
-0.475049
-0.340784
-0.169154
-0.0927074
0.977776
-1.14538
-0.754369
-0.370481
-0.203457
1.70753
-0.270418
-0.264202
-0.137536
-0.0767487
-0.891854
-1.84181
-0.999499
-0.467681
-0.252978
1.27713
-0.359386
-0.282945
-0.143016
-0.0793261
3.12592
-0.327483
-0.395487
-0.211313
-0.118709
2.01863
-0.206067
-0.230783
-0.120791
-0.067264
6.35526
0.606666
-0.0519119
-0.0706358
-0.0467245
3.94944
0.393287
-0.00348184
-0.0264933
-0.0187459
1.24204
-0.0890037
-0.142343
-0.0798498
-0.0460011
0.379107
-0.17107
-0.131693
-0.0683718
-0.0387207
2.41798
-0.463781
-0.42207
-0.220315
-0.124081
0.58209
-0.610842
-0.394405
-0.195485
-0.108785
5.13261
-0.340512
-0.478044
-0.258665
-0.146741
0.0813184
-1.06098
-0.603832
-0.288137
-0.15786
-0.771978
-1.50635
-0.788291
-0.365373
-0.197325
-1.51476
-1.07099
-0.519391
-0.237176
-0.127862
-1.49548
-0.984878
-0.465095
-0.20958
-0.111965
83.6095
-164.319
334.777
-383.57
704.578
-462.424
1316.01
-224.84
1770.01
660.408
-422.644
-1205.6
1086.92
735.268
-1167.81
-2130.1
-1668.96
-2539.99
-933.921
-229.476
-54.1111
-12.5787
-3.39412
-213.011
-131.419
-18.6783
-5.54629
-2.64419
-2880.09
-701.658
-165.909
-38.3825
-10.3753
-493.661
-165.154
-45.3674
-10.4407
-3.16003
-4820.27
-1174.27
-278.469
-64.6939
-17.4746
-872.147
-297.692
-79.2832
-20.0138
-5.54708
-6421.58
-1565.3
-372.892
-87.0157
-23.5856
-1094.17
-388.646
-105.133
-26.5797
-7.31682
-7966.37
-1955
-469.03
-110.168
-30.0674
-1314.33
-490.566
-134.404
-34.1428
-9.47656
-9263.37
-2340.26
-570.23
-135.548
-37.3633
-2200.12
-708.121
-183.982
-44.9527
-12.3067
-8713.63
-2192.2
-531.113
-125.492
-34.3933
-1661.8
-589.606
-158.501
-39.5962
-10.8702
-9478.31
-2399.55
-586.5
-139.858
-38.687
-2526.73
-782.947
-200.118
-48.1813
-13.1498
-9834.31
-2470.51
-605.182
-144.395
-39.967
-2645.29
-819.549
-210.89
-47.3897
-13.6149
-555.661
-8167.71
-7022.59
-2203.03
-1660.86
-782.285
-3840.58
-2440.55
-7344.34
-6730.57
-3585.8
-2581.35
-87.2573
-151.25
-292.975
-537.835
-919.377
-1462.49
-68.0282
-165.512
-380.672
-742.654
-1271.06
-1951.18
-62.413
-27.9223
-119.878
-77.401
-247.364
-192.546
-468.594
-412.495
-772.42
-700.907
-1193.21
-1002.01
-2101.05
-2741.74
-3435.51
-5950.71
-7392.59
-8578.13
-2698.32
-3351.18
-3723.31
-3777.68
-3593.13
-3404.49
-78.1002
-65.3962
-49.0519
-30.3065
-10.2408
-135.137
-112.91
-84.5037
-52.1186
-17.5945
-261.201
-217.68
-162.496
-100.021
-33.7296
-478.161
-397.18
-295.535
-181.468
-61.1188
-814.145
-673.212
-498.793
-305.334
-102.682
-1287.5
-1057.76
-779.173
-475.122
-159.518
-60.8247
-50.8658
-38.1033
-23.5176
-7.94229
-147.679
-123.192
-92.0511
-56.7031
-19.1294
-338.907
-281.975
-210.157
-129.204
-43.5445
-659.216
-546.598
-406.045
-249.036
-83.8286
-1123.71
-927.51
-686.114
-419.567
-141.037
-1715.65
-1407.74
-1035.95
-631.35
-211.935
-55.9109
-46.8648
-35.1892
-21.7598
-7.3562
-25.0245
-20.9871
-15.7673
-9.75426
-3.29834
-107.23
-89.7168
-67.2386
-41.5153
-14.0232
-69.2883
-58.0273
-43.5312
-26.8982
-9.08949
-220.849
-184.36
-137.851
-84.9592
-28.6696
-172.063
-143.792
-107.634
-66.3913
-22.4136
-417.257
-347.22
-258.808
-159.117
-53.6248
-367.602
-306.181
-228.415
-140.518
-47.3705
-685.202
-567.674
-421.314
-258.196
-86.8732
-622.353
-516.117
-383.359
-235.044
-79.0957
-1051.88
-865.305
-637.98
-389.156
-130.649
-884.462
-728.421
-537.419
-327.843
-110.04
-1833.34
-1492.37
-1090.98
-662.336
-222.116
-2359.2
-1894.79
-1371.51
-829.151
-278.357
-2889.58
-2275.33
-1626.55
-981.326
-332.157
-4814.01
-3684.97
-2600.74
-1580.3
-552.451
-5615.76
-4142.48
-2895.13
-1799.27
-679.553
-6235.79
-4494.05
-3124.21
-1975.71
-788.243
-2355.45
-1918.19
-1402.85
-851.925
-285.702
-2896.56
-2336.14
-1696.18
-1026.67
-344.381
-3172.77
-2526.28
-1818.78
-1098.41
-369.639
-3146.96
-2460.13
-1753.36
-1059.72
-360.747
-2874.69
-2183.89
-1538.23
-937.8
-330.149
-2620.09
-1938.68
-1352.12
-833.295
-304.28
-89.0838
-157.638
-306.78
-564.298
-966.587
-1535.66
-70.3563
-173.803
-398.639
-775.465
-1322.31
-2017.99
-63.9227
-28.971
-125.474
-81.771
-260.564
-204.625
-496.674
-441.887
-829.572
-778.096
-1289.55
-1153.35
-2195.66
-2851.11
-3554.52
-6031.14
-7416.15
-8579.16
-2769.34
-3411.05
-3761.23
-3787.34
-3582.68
-3397.07
-79.764
-66.8203
-50.1452
-30.995
-10.476
-140.96
-117.898
-88.3357
-54.5332
-18.4195
-273.801
-228.488
-170.811
-105.266
-35.523
-502.359
-417.982
-311.575
-191.604
-64.5873
-857.422
-710.522
-527.64
-323.602
-108.941
-1354.97
-1116.3
-824.719
-504.105
-169.475
-62.9458
-52.6814
-39.4973
-24.3956
-8.24218
-155.24
-129.672
-97.0322
-59.8432
-20.2025
-355.321
-296.073
-221.017
-136.062
-45.8903
-689.272
-572.493
-426.055
-261.702
-88.1673
-1170.86
-968.321
-717.8
-439.7
-147.947
-1777.56
-1461.78
-1078.24
-658.39
-221.249
-57.2847
-48.039
-36.0893
-22.326
-7.54944
-25.9777
-21.8007
-16.3901
-10.1456
-3.43183
-112.324
-94.0735
-70.5803
-43.6183
-14.7412
-73.2619
-61.4207
-46.1301
-28.5317
-9.64681
-232.876
-194.656
-145.756
-89.9372
-30.3698
-183.054
-153.185
-114.834
-70.9195
-23.959
-442.882
-369.195
-275.71
-169.777
-57.2685
-394.406
-329.151
-246.069
-151.645
-51.1725
-737.371
-612.423
-455.735
-279.904
-94.2934
-692.506
-575.981
-429.169
-263.819
-88.9104
-1140.23
-941.476
-696.858
-426.428
-143.416
-1022.01
-845.787
-627.208
-384.227
-129.268
-1921.53
-1569.8
-1151.88
-701.425
-235.614
-2462.98
-1987.56
-1445.66
-877.342
-295.137
-3005.95
-2382.14
-1713.88
-1039.13
-352.577
-4905.49
-3778.55
-2683.92
-1639.14
-574.542
-5658.41
-4194.41
-2946.7
-1839.38
-696.397
-6246.6
-4510.13
-3141.82
-1990.41
-794.838
-2422.15
-1977.24
-1449.69
-882.181
-296.187
-2954.25
-2388.57
-1738.75
-1054.67
-354.191
-3211.62
-2563.55
-1850.42
-1119.92
-377.349
-3161.16
-2477.05
-1769.92
-1072.13
-365.514
-2870.4
-2184.36
-1541.71
-941.91
-332.207
-2615.56
-1936.46
-1351.68
-833.84
-304.773
-19664.3
-13715.7
-2964.51
-1898.99
-1462.75
-1848.65
-2027.75
-12134.4
-12582
-9793.24
-11065
-5499.88
-8731.44
-3959.16
-4220.89
-2885.74
-19303.9
-9414.26
-2912.63
-4831.37
-7182.03
-4598.76
-4603.29
-3331.93
-1900.22
-2521.33
-3304.67
-3326.82
-19061.1
-11959.5
-11440.7
-7774.8
-7175.93
-8168.23
-2898.15
-3314.32
-4959.51
-12933.3
-10163.6
-7508.3
-5834.36
-4118.49
-8548.24
-5572.45
-3905.15
-2590.58
-1139
-2558.61
-2062.96
-1499.66
-910.061
-306.323
-1666.69
-1365.63
-1004.44
-612.444
-205.792
-1283.41
-1050.66
-771.662
-469.709
-157.61
-1631.38
-1343.94
-992.549
-606.365
-203.76
-1772.04
-1445.02
-1058.28
-643.414
-215.935
-8115.64
-6100.48
-4446.81
-3396.04
-2741.21
-8580.35
-6716.23
-4894.66
-3462.29
-1790.81
-6722.81
-4522.64
-3155.55
-1991.67
-781.158
-7611.46
-5764.35
-4133.5
-2736.21
-1182.33
-4477.12
-3434.87
-2413.78
-1442.08
-487.038
-6580.55
-4719.34
-3263.42
-1955.1
-678.648
-3320.8
-2605.71
-1854.1
-1110.76
-372.452
-3524.76
-2755.13
-1954.98
-1169.72
-392.253
-2447.99
-1938.78
-1387.36
-832.358
-278.403
-12538.1
-9120.1
-6711.91
-5018.6
-3744.05
-6943.93
-5025.33
-3542.36
-2223.44
-883.508
-2431.67
-1903.46
-1355.1
-815.109
-275.836
-4042.56
-3175.23
-2271.03
-1374.88
-469.852
-5798.87
-4449.18
-3155.74
-1931.57
-690.318
-3829.35
-2997.14
-2141.68
-1299.81
-446.45
-3886.66
-3077.53
-2214.44
-1344.41
-457.855
-2847.55
-2274.68
-1642.51
-994.157
-335.235
-1635.08
-1312.37
-948.559
-572.1
-191.536
-2192.61
-1778.94
-1297.3
-786.714
-263.863
-2808.12
-2229.42
-1600.18
-963.425
-323.637
-2844.61
-2272.62
-1640.1
-991.408
-333.821
-12412.6
-9425.7
-6997.19
-5270.44
-3752.57
-7988.75
-5461.96
-3852.1
-2522.39
-1113.49
-8239.6
-6248.5
-4417.07
-2900.1
-1237.58
-5931.28
-4330.95
-3060.69
-1918.26
-720.583
-5815.57
-4477.75
-3183.87
-1953.38
-696.053
-6224.13
-4546.81
-3212.72
-2009.99
-746.949
-2443.19
-1930.69
-1386.62
-840.599
-285.991
-2870.79
-2320.52
-1688.19
-1023.25
-343.488
-4181.85
-3302.87
-2369.53
-1434.41
-487.043
-279.448
-824.765
-1378.69
-1963.25
-2564.41
-3158.91
-3218.29
-8539.39
-7846.68
-3044.84
-10660.9
-9125.63
-10257.9
-11265.7
-2984.11
-1909.59
-6977.17
-3778.59
-12598.6
-9477.67
559.947
-2569.52
-6988.97
-6291.29
-2397.23
-8861.96
-7192.2
-8367.35
-9220.84
-2464.89
-1049.77
-6053.98
-1756.28
-9992.47
-5619.23
2471.15
-1809.47
-5104.43
-4526.42
-1670.99
-6702.94
-3882.57
-6424.15
-6800.26
-1808.19
-974.406
-4158.45
-1909.28
-7517.58
-1690.22
2643.35
-1249.86
-3726.32
-3305.88
-1179.67
-4782.91
-1940.15
-4961.74
-5502.84
-1298.58
-1051.4
-2941.89
-2001.2
-6226.99
95.5072
1993.01
-944.125
-2974.73
-2645.01
-921.735
-3530.71
-1422.06
-4157.91
-5072.49
-968.626
-1186.31
-1967.52
-1974.19
-5222.12
289.921
393.638
-788.453
-2491.91
-2298.38
-787.074
-3099.37
-1777.81
-3644.74
-4700.99
-698.716
-935.431
-1471.55
-1893.92
-5168.24
-901.817
-607.035
-1412.71
-3422.12
-5463.39
-2135.45
-5456.61
-9590.48
-7834.91
-11155.5
-902.949
-525.053
-3614.95
-1841.47
-860.447
-8595.01
-3966.07
-1290.26
-3128.47
-4687.39
-1814.18
-4925.39
-8437.55
-6881.11
-9178.43
-906.745
-410.059
-3680.85
-1614.47
-18.7987
-8149.32
-2600.54
-1087.37
-2641.85
-3652.93
-1388.39
-4298.8
-7061.81
-5573.8
-7570.79
-760.207
-463.566
-2957.12
-1615.45
-250.435
-6035.74
-2293.03
-875.273
-2239.49
-2811.71
-1045.31
-3760.5
-5910.73
-4640.41
-6395.22
-643.221
-452.466
-2537.46
-1596.27
-175.321
-5185.52
-2158.92
-738.917
-1902.04
-2328.91
-850.783
-3177.68
-5065.95
-3976.34
-5763.84
-558.735
-503.706
-2130.44
-1697.23
-362.716
-4678.46
-2186.55
-651.372
-1603.98
-2051.56
-740.947
-2797.28
-4887.83
-3508.03
-5390.05
-555.514
-591.066
-1802.53
-1602.04
-639.868
-4756.43
-2502.96
7330.52
9264.46
18902.1
27881.1
28512.5
48958
21632.4
54752.5
17426.3
38196.1
26086.2
39741.4
23193.1
30812.5
8810.74
10068.8
18615.2
21370
23602.8
23471
18349.6
22397.2
26809.2
23968
6223.98
4895.98
7607.55
5291.1
15775.9
12960
26690.1
19764.2
20496.4
21492.4
23319.4
22899.8
8744.86
6553.05
47706.8
63910.9
31105.5
38131
63009.7
82001.7
32782.8
37583.2
35947.1
50787.7
31742.5
41891.4
18878.3
30133.4
3586.92
1249.65
3648.83
1348.05
11400.3
4666
15457.6
5779.96
11368.7
4320.16
11616.4
3776.26
19566
6307.67
25223.6
8619.49
28764.6
14652.2
26456.1
15666.5
26247.4
16999.3
23247.5
17075.1
21510
12946
21621.8
11406.2
27421.2
17216.8
27561.3
17312.8
24675.1
17923.9
25009.6
17912.1
23213.2
14705.6
24060.7
15024.3
22308
10008
10766
13550.8
22317.6
11021.2
9599.83
13993.9
23628
9884
12033.8
13503.8
24845.8
10104.3
13001.2
14025.4
4610.07
5007.48
1629.51
3319.96
14034.8
14892.2
5679.59
10653
18033.9
19670.3
9433.1
16301.2
12176.6
-111.616
15249.6
20239
11808.4
-544.62
6491.34
14236.1
23801.2
18850.7
11714.7
14872.8
13905.8
12794
20491
4055.77
3128.02
2351.7
2316.67
12379.2
9799.46
8038.5
7453.47
15045.8
11675.2
10383.3
9057.68
5232.09
6940.07
11416.8
12092.3
15733.3
14042.8
18054.3
15025.1
13842.4
11583.1
9565.58
9101.32
12978.5
8852.74
12449.7
7758.18
11397.8
6772.49
14398.5
8887.22
10938.6
3531.88
9805.73
9545.61
13133.3
15859.6
14602.3
20182.4
8231.85
8067.14
10048.8
1461.12
8885.16
15852.3
8482.01
17224.5
14525
25139.3
14766.9
26942
7217.67
14273
6696.18
15439.8
10243.4
6804.7
14783.1
5230.31
9932.77
239.852
12622.2
-622.716
10045.4
10762.3
15559.7
6827.48
8525.89
12873.1
13991.8
9052.84
2215.89
1830.48
1449.31
1686.03
1450.46
1181.79
7278.6
5148.64
3872.79
5047.63
3459.3
2606.5
8115.94
6076.11
5186.28
5901.25
4057.16
3488.35
5459.4
4016.86
3615.69
9913.72
6149.57
4583.17
10292.7
6241.42
4349.13
10673
7089.82
5542.84
7987.61
4424.4
3009.35
14059.1
10325.6
7736.36
9907.09
7012.68
4837.67
9766.71
6364.01
4100.5
9010.95
5478.16
3347.33
10552.7
5223.59
2365.16
11512.7
15282.3
9378.08
11812.7
13176
18863.6
12034.5
16941.8
54.9861
602.005
-402.685
135.673
3084.03
3353.2
1453.7
929.926
1083.97
2724.76
10007.1
14195.5
6572.01
3997.17
11173.7
11126.1
17883.5
19729.4
-408.336
-4274.76
8209.1
7649.14
7474.74
5707.93
906.373
487.345
676.668
345.399
2140.73
225.923
33.2532
-549.862
9252.67
2161.27
6593.89
1714.83
9275.08
2727.92
11073.8
3311.17
9996.13
12324
9116.49
11947.2
16421
16497.5
15548
15502.5
5947
8941.57
6914.63
8925
9569.79
11467.8
10416.3
11476.6
16166.3
15165.1
16852.7
15125
5930.65
8604.74
6326.24
8650.94
-257.378
808.125
6265.36
3092.09
-658.409
475.123
5802.35
2707.24
124.335
1037.18
6356.64
3363.9
432.685
1197.69
6288.26
3409.65
-551.889
-619.862
133.962
-33.385
-2480.8
-2402.05
-203.948
-423.327
-488.202
-1605.18
1199.98
528.255
-9604.25
-10041.3
-4915.18
-3700.46
-588.55
-10843.9
-10139.3
-3637.05
-5238.99
-957.235
11191.8
8341.3
6671.15
5531.22
2629.51
-546.747
-426.394
-88.5095
-59.429
-1852.08
-1530.18
-264.038
-167.897
-1913.27
-1981.23
185.65
210.263
-4799.94
-1615.06
-7021.36
-3687.87
-2774.78
-1712.19
-3091.16
-2291.47
-91.4254
367.801
4127.01
2501.14
1414.16
-494.542
1008.62
-428.67
1122.26
68.6838
872.319
847.087
5083.15
4314.25
9434.96
5520.77
8333.88
7745.91
12493.2
9678.81
6718.04
3719.27
3354.81
3035.29
11071.8
4811.63
12082.9
5351.35
13893.1
9925.45
14756.1
10691.2
8161.17
3047.59
9057.01
3496.05
4456.48
3054.54
2427.53
3354.83
2743.13
2724.18
2010.79
3083.34
5172.53
2945.36
2737.57
3855.07
6348.91
3171.79
3692.2
3932.14
-340.134
-295.529
-306.751
-45.5466
-109.445
-111.222
-1296.95
-1170.23
-1080.2
-147.302
-317.639
-297.647
-1787.65
-1654.66
-1529.76
163.81
-325.33
-396.123
-579.953
-475.846
-206.567
-2047.46
-1928.52
-1659.3
-1519.12
-1550.13
-1432.47
-1912.09
-1755.1
-1573.09
509.561
-135.946
-179.481
3521.19
1945.33
1060.82
-125.066
-755.575
-1047.44
-218.159
-894.368
-1137.64
-90.1022
-737.93
-887.014
987.188
-166.267
-289.705
-4.00385
-6.11192
-5.92002
-9.57065
-137.342
-56.2502
-35.8377
-24.2977
21.0404
-6.58692
-43.4964
-52.0863
-214.848
-96.3409
-98.299
-74.4595
176.671
31.4178
-63.8761
-100.077
-8.921
-43.5153
-61.9372
-56.3996
59.0209
-14.9287
-13.4095
-12.2909
184.453
39.1054
-21.1898
-34.3704
640.579
164.973