/*--------------------------------*- C++ -*----------------------------------*\
  =========                 |
  \\      /  F ield         | OpenFOAM: The Open Source CFD Toolbox
   \\    /   O peration     | Website:  https://openfoam.org
    \\  /    A nd           | Version:  11
     \\/     M anipulation  |
\*---------------------------------------------------------------------------*/
FoamFile
{
    format      ascii;
    class       volScalarField;
    location    "0.8";
    object      gradTz;
}
// * * * * * * * * * * * * * * * * * * * * * * * * * * * * * * * * * * * * * //

dimensions      [0 -1 0 1 0 0 0];

internalField   nonuniform List<scalar> 
5712
(
8949.53
29274.9
7169.92
29970.2
5292.58
30698.9
8161.45
46341.4
9996.05
63445
10041.5
46801
9802.49
39175.4
10202.6
35192.1
6150.92
3944.64
16536.1
9949.41
5911.92
3203.89
17636.7
8720.09
6963.69
5288.11
22218.8
16247.8
5272.2
4037.28
21817.8
16436.4
12428.7
5332.54
10845.4
4937.66
5193.11
11866.3
41102.8
10931.5
14758.4
4641.11
51918.3
13779.7
13404.3
4189.71
29971.3
9166.91
15383.4
5149.09
26604.5
8358.66
9264.72
4593.93
12099.7
4843.46
10057
5401.62
11725.7
4643.85
12293.7
7102.59
10083.3
4538.82
14240.6
5244.16
4808.27
1715.66
16148.8
11486.6
9630.45
7122.3
16603.8
13656.7
8869.17
7562.09
9692.43
6825.99
14432.8
10124.1
6063.14
4450.59
2711.14
2211.47
5443.56
4623.53
2396.44
2348.46
6180.11
4161.18
2862.23
1822.54
9070.82
5074.18
7110.52
8415.53
12985.1
9363.17
10767.2
14746.6
5740.3
2816.64
4016.91
4690.5
2625.96
1143.32
1552.79
1655.23
13135.1
23268.4
8735.13
25794.8
15066.6
22584.9
10593.5
26671.5
16671.7
20122.3
13314.1
25492.2
16626.4
17888.8
14198
14162.9
15189.2
17953.5
18603.7
20100.8
21659.8
30640.3
14672.2
12817.1
12216.8
14012.6
21109.4
27248.7
24579.7
31389.2
30594.1
24924.9
23282.3
30765
29751.8
21412.4
21102
28528.8
28396.9
13348.8
10802
14308.5
13011.1
16631.5
15784.4
18814.1
18817.9
25656.2
27033.8
12313.2
11234.6
13237.6
13922.2
14721.1
16904.7
17136.8
20463.3
22263.7
27028.9
10643.3
8360.31
6976.1
8517.3
13000.2
15052.1
8694.98
13255.2
6451.43
8040.69
10029.3
8344.87
1779.7
5452.59
578.278
1718.6
4227.65
8606.03
1228.22
2714.84
1190.11
4977.23
327.318
1546.41
6666.85
6615.15
7741.03
5049.14
10878.2
8902.98
12921.4
9300.73
1868.38
3544.53
3827.72
2316.47
1822.72
2316.87
2606.09
1953.99
19907.3
12230.2
3939.87
22362.4
13020.5
4292.8
19116.5
12090.1
4158.67
21857.4
12992.1
4285.84
17498
11106
3690.17
21104
12931.3
4335.72
7705.35
4647.38
1423.53
10913.6
7315.6
2503.21
13818.1
9470.46
3260.86
16534.8
10854.6
3630.21
20719.1
13131
4553.55
8728.07
5392.77
1880.69
10892.2
7947.23
3036.42
13624.5
10013.6
3732.34
16921.4
11925.9
4319.8
21025.5
13421.1
4815.02
249.928
2039.46
2799.11
4128.91
2488.44
2765.1
6135.97
5740.11
579.241
906.991
617.452
942.384
408.262
1253.96
772.66
1654.68
2876
1441.46
3805.75
2258.56
1926.69
3258.13
3268.59
184.078
6677.63
1055.37
-2776.98
-370.475
1245.17
462.183
493.523
24.2713
8629.7
3480.9
2311.9
1280.13
8784.57
3584.17
2918.46
1600.24
8723.27
3809.23
4071.54
2478.14
2682.3
1666.77
663.598
690.428
13073.9
11337.5
5933.29
6014.3
15161.4
13958
7294.79
7176.91
4798.97
4823.52
10430.2
8380.92
3220.86
3396.12
1353.36
1768.98
4203.91
4133.23
1866.93
2127.43
2466.06
2758.14
939.741
1527.63
3879.16
2268.03
3732.66
2167.08
6380.17
3095.13
5781.41
3108.41
2009.75
1480.02
2198.13
1284.47
706.087
682.616
1214.9
626.094
9818.11
5892.64
4313.16
3817.91
9855.01
6210.79
4311.87
3813.28
10491.7
6854.72
4376.8
3788.9
14364.2
16765.2
12089.7
7337.73
3409.6
15828.2
13375.7
11320.2
8410.35
4356.18
14729.1
12245.7
8967.5
6174.19
3106.11
4153.12
3098.67
3409.64
3261.57
4560.68
3278.27
3558.94
3347.53
5262.84
3742.68
3791.33
3526.76
11862.2
8491.16
9952.78
6787.65
7017.87
5330.22
5753.91
4448.19
3663.37
3682.24
9907.66
8629.38
7944.06
6745.14
6061.7
5195.79
4591.18
4141.1
2814.56
3477.87
7057.48
4805.92
4550.8
2875.68
10029.6
7687.56
6748.05
5535.34
3329.51
2034.65
4972.1
3553.56
4298.88
2064.49
1267.05
682.074
4941.14
3627.05
1389.87
1171.34
3384.73
1476.62
1076.69
510.696
2307.81
1939.37
1554.06
2091.22
3334.12
2832.88
2012.67
2647.91
2342.65
1345.73
1126.35
1423.65
507.739
198.1
-147.767
112.567
1974.91
833.34
243.77
2036.19
566.69
152.585
2158.57
965.427
295.098
2124.28
621.912
175.127
2354.08
1119.69
308.875
2246.87
688.955
174.589
5543.17
3102.1
862.616
4193.5
2192.44
614.075
3383.74
1706.63
500.471
2750.86
1316.55
335.237
2376.3
727.643
144.567
6548.67
3574.01
1109.23
5008.55
2582.29
775.29
3865.13
1946.79
587.274
3023.32
1368.49
375.055
2594.85
707.661
183.88
1181.73
377.274
94.9216
-12.2908
490.257
161.441
46.2463
3.22751
1230.55
400.275
111.862
3.99372
597.241
205.562
86.6847
34.5384
1288.26
426.639
146.343
35.0728
937.122
344.684
94.8557
14.7352
593.644
252.817
31.307
-25.1459
404.703
209.229
74.0572
27.6592
966.625
349.599
80.8754
-34.2405
779.728
274.794
99.6735
-21.4396
1213.44
405.124
126.741
2.17197
1042.4
343.731
125.256
-33.4608
680.427
271.62
72.2074
-13.7185
532.538
205.255
84.8555
4.87436
384.642
180.353
72.0928
30.1299
286.949
132.032
65.9816
27.3085
1461.54
458.348
115.472
-35.8752
1359.71
416.5
151.209
-44.84
1449.12
456.697
117.953
-35.0959
1319.12
402.696
150.628
-44.9465
1406.26
445.843
144.693
-9.89662
1239.66
376.825
163.184
-27.2442
1207.87
393.603
162.409
39.7479
1351.31
410.433
207.555
-27.3798
1035.97
334.738
148.535
6.66233
998.936
285.284
122.818
-18.8591
380.162
102.023
34.7811
2.61625
1050.51
302.923
128.3
-16.8604
404.381
109.969
39.5361
5.9843
1098.49
320.996
141.984
-10.1999
426.265
118.492
44.3863
9.41055
1004.83
297.77
150.859
-1.52433
425.091
120.61
53.8777
15.1201
917.801
283.419
146.475
9.95504
388.072
121.246
63.8388
21.4342
574.723
187.53
73.621
2.49795
327.694
124.029
54.8105
22.249
709.941
217.717
99.414
3.82098
358.905
124.575
61.0649
22.9202
412.326
149.695
58.6932
7.36033
251.061
105.993
44.9041
20.7281
228.037
102.517
50.2966
21.2435
159.185
80.5525
39.2931
21.4196
0.353985
0.948289
0.507583
0.223587
0.113178
0.834737
0.579938
0.279518
0.120398
0.0605951
3.76488
2.20341
0.994793
0.419063
0.209592
4.64576
2.02208
0.848714
0.350154
0.174161
6.70448
3.52722
1.54722
0.647686
0.324243
13.3936
6.20607
2.60335
1.07547
0.536924
13.3946
6.59963
2.84136
1.19374
0.603215
18.2902
8.18132
3.44843
1.44885
0.736458
7.64761
4.61223
2.05961
0.870614
0.439254
8.02477
4.29575
1.87394
0.787936
0.397266
6.70107
3.93194
1.73001
0.723946
0.362677
10.7146
4.87147
1.99121
0.81253
0.403263
8.67923
5.0864
2.29229
0.979575
0.498727
10.074
4.86792
2.10143
0.887249
0.450138
14.3992
6.4922
2.75086
1.15988
0.591019
12.0835
5.33327
2.25522
0.952122
0.485797
-1.60173
0.583699
0.38172
0.172966
0.0880332
-1.16048
0.197757
0.146457
0.0668442
0.0339994
0.627631
1.40909
0.69312
0.295839
0.148088
-0.336487
0.506331
0.26131
0.11175
0.0558313
3.00737
2.21709
0.999526
0.418747
0.209055
2.91859
1.53106
0.63145
0.255617
0.125695
8.90849
4.17591
1.71673
0.698802
0.345586
6.25725
2.75903
1.0974
0.440015
0.215935
14.2522
5.5339
2.15515
0.860878
0.422667
2845.45
6482.46
2981.67
6474.9
3373.67
6477.16
3950.97
6673.6
3993.51
6721.89
1670.8
2389.78
2665.13
4015.99
892.599
1186.73
252.083
345.529
14628.6
3559.34
835.922
193.253
50.8586
4032.92
1103.24
298.967
70.1555
16.247
14327.2
3464.15
814.06
186.943
49.6242
4114.51
1226.57
308.6
73.9879
19.3712
13449.5
3239.84
760.695
174.917
46.6074
3990.83
1181.85
296.489
70.7543
18.6022
12039.4
2886.41
678.181
156.358
41.8317
3837.84
1113.37
276.131
65.4098
17.1338
9824.5
2353.31
555.41
128.738
34.6451
3557.05
1007.46
247.861
58.4979
15.3211
4454.11
1121.68
270.999
63.7231
17.3255
1710.82
492.577
120.555
28.0351
7.3438
6764.14
1675.71
400.584
93.4365
25.2642
2530.71
718.967
177.192
41.8524
11.0531
2578.34
655.366
159.383
37.7421
10.3099
952.481
284.54
69.368
16.122
4.25865
874.053
221.538
54.0817
12.8643
3.52067
351.784
97.5979
22.3134
6.37367
1.33553
-955.16
-224.449
4981.37
-1460.3
810.562
868.302
2513.52
3241.99
2052.96
3896.88
3415.85
5281.86
4260.97
5277.6
2170.64
2911.46
2249.05
2672.03
1165.22
1211.57
2098.47
1344.08
666.511
20.5888
-164.435
-189.101
188.818
14376.2
4780.41
5193.79
3935.69
665.59
696.793
3410.54
-207.389
157.527
-32.6657
-92.0145
7759.31
4303.79
2108.61
1447.43
3548.95
2191.3
815.163
1400.65
-464.285
-38.4755
1064.09
929.348
8749.61
3915.44
5531.86
2748.2
3603.12
4981.05
1636.35
-72.2555
1318.63
1323.78
954.148
727.032
568.683
366.197
981.771
724.607
516.236
331.997
132.047
572.949
459.814
332.921
201.516
67.7102
17.8301
14.4718
10.6828
6.61138
2.24314
-145.673
-120.161
-88.464
-53.6889
-17.9355
-167.723
-138.568
-102.208
-62.1417
-20.7812
165.191
135.648
100.749
62.3432
21.2189
9580.7
7285.58
5321.07
3937.53
2833.53
3653.34
2707.38
2055.5
1393.87
613.455
3803.46
2795.23
2024.67
1320.06
562.829
2816.34
1974.83
1420.99
911.621
338.048
534.997
370.331
295.02
198.17
75.5749
624.503
524.891
399.598
254.34
89.5211
2722.09
2076.78
1464.79
902.689
330.411
-9.82553
99.9043
121.006
96.4315
38.1361
151.266
139.522
117.333
81.2865
30.2754
49.7987
97.8769
108.121
83.6459
32.2392
-92.3288
-80.8187
-59.7498
-35.0709
-11.1232
5262.85
4160.97
3100.77
2336.75
1691.15
3185.68
2347.99
1709.57
1107.41
453.585
1786.95
1431.67
1051.09
655.611
231.407
1214.35
961.784
697.534
429.671
149.418
2857.09
2183.59
1542.86
941.104
333.93
1856.42
1479.15
1074.78
660.106
226.224
687.93
546.36
395.62
241.996
82.8705
1195.47
954.732
690.559
419.363
141.799
-393.511
-308.229
-215.407
-125.226
-40.6916
-35.3788
-28.5841
-18.9234
-9.47434
-2.53351
903.005
719.249
521.398
319.027
109.228
794.79
637.51
464.193
284.066
96.7491
5319.3
3521.35
2624.66
1978.75
1368.93
2833.64
2051.78
1440.74
917.712
367.954
3841.95
2878.01
2062.61
1371.82
576.009
2093.83
1588.89
1130.5
714.177
276.469
2946.44
2282.54
1629
996.706
348.003
3667.31
2604.66
1867.32
1196.7
445.302
1386.01
1099.89
792.64
481.274
163.25
-66.264
-55.3796
-40.0105
-23.1839
-7.36028
1111.85
882.917
640.687
393.77
135.564
-36906.8
-59027
-30793.3
-47647.5
-32216.7
-65107
-38370.6
-82820.3
-23715.3
-16575.8
-25960.2
-16646
-21549.7
-14132.5
-25953.3
-14208.5
-31321.3
-24251.5
-44606.6
-32893.5
-27019.1
-22144.9
-37087.8
-28490
-21247.7
-22270.9
-17669.7
-17492.5
-21351.3
-19510.6
-48851.6
-13540.3
-19235.4
-7405.29
-58658.4
-16493.7
-17130.2
-6749.7
-37081
-11700.7
-19731.4
-7720.4
-33496.1
-10342.2
-16930.4
-6917.61
-20984.9
-7693.22
-16173.4
-7230.56
-18188.5
-6686.55
-16681.5
-8317.43
-14548
-5895.5
-18126.4
-6502.09
-6343.38
-2259.84
-13896.9
-9882.17
-11969.8
-7728.62
-11926.2
-9898.45
-10336.9
-7562.59
-12397.5
-7615.07
-14714.6
-9953.67
-8279.34
-5262.36
-4562.13
-3040.12
-7143.83
-5097.15
-3926.08
-2951.42
-8490.49
-5011.06
-4710.91
-2643.42
-11126.4
-5753.31
-7703.98
-8617.76
-14332.3
-9793.18
-10983.9
-14703.9
-7483.14
-3409.57
-4645.19
-4932.95
-4010.73
-1638.8
-2155.04
-1892.39
-17276
-21643.3
-9935.33
-24870.5
-17958.1
-20633.3
-11436
-25382.3
-18099.4
-18636.6
-13618.5
-24023.9
-11926.2
-9493.67
-13539.5
-15260.4
-15361.8
-12715
-15256.4
-18307.8
-20338.5
-28949.9
-9131.13
-9979.73
-11174.7
-13514.1
-20416.9
-20914.3
-14700.4
-26796.6
-20834.3
-19388.8
-14438
-26405.5
-20784.3
-17116.4
-13596.9
-24657.9
-20643
-10337.8
-8267.53
-11515.4
-9442.58
-13220.9
-11097.2
-14988.4
-13101
-22386.7
-20791.6
-9474.69
-8469.57
-10425
-9876.96
-12030.4
-12151.6
-14674
-15372.4
-20226.6
-21609.9
-8998.28
-7151.41
-6610.21
-7998.7
-10274.5
-13023.5
-7764.93
-12030.4
-6430.43
-7826.34
-9180.45
-7510.1
-1932.93
-5362.81
-895.237
-1835.17
-4075.96
-8194.64
-1344.36
-2612.62
-1473.13
-5047.5
-720.453
-1747.24
-6736.59
-6487.01
-7758.81
-4893.18
-10409
-8198.67
-12560.4
-8527.55
-2119.05
-3636.64
-3963.56
-2352.87
-2155.45
-2508.36
-2798.72
-2075.43
-9018.79
-3100.48
-12276.6
-4167.43
-9224.55
-3252.09
-12572.3
-4486.63
-9179.17
-3206.06
-13231.3
-5028.49
-5075.2
-1555.35
-6652.37
-2479.89
-7891.38
-3001.41
-9726.51
-3617.47
-14037.3
-5502.7
-6090.55
-2024.33
-6723.39
-3053.94
-8419.33
-3716.03
-11087.2
-4636.71
-14822.8
-5564.33
-8255.81
-7628.73
-6665.84
-6370.39
-13755.9
-10591.2
-11450.5
-9481.86
-5237.75
-4062.24
-2206.63
-1474.87
-5102.12
-4428.63
-2217.52
-2065.41
-4349.72
-5911.58
-4874.61
-6288.53
-4676.16
-3612.93
-4903.05
-1733.65
-9238.96
-3168.91
1508.9
-943.516
-2171.89
-1503.23
-927.428
-700.626
-2490.02
-1384.04
-991.671
-485.107
-2769.43
-1516.18
-1571.37
-668.782
-3250.48
-1850.52
-2541.8
-1188.8
-2152.66
-772.852
-543.723
87.5272
-6523.21
-6714.52
-5333.21
-4772.71
-9067.78
-8938.84
-7706.32
-6429.39
-3497.66
-3450.24
-4664.52
-4915.16
-3596.47
-3010.09
-1966.19
-1692.61
-5235.86
-4140.54
-2956.9
-2386.69
-2269.39
-2131.09
-1085.64
-1195.46
-2190.53
-1197.64
-2532.89
-1411.8
-2882.18
-1673.56
-3579.66
-2072.39
-1291.28
-711.486
-1519.26
-727.806
-364.943
-62.3916
-760.241
-168.493
-3252.81
-3567.66
-2112.5
-2635.22
-3332.8
-3729.52
-2168.79
-2639.87
-3708.04
-3735.45
-2321.87
-2558.33
-4267.82
-6770.74
-3338.7
-2379.58
-1625.17
-9628.02
-6644.61
-5357.73
-4381.53
-3006.48
-7760.77
-6063.15
-4546.27
-3484.09
-1954.84
-3647.96
-3189.04
-3472.18
-4922.36
-3685.41
-3077.95
-3398.85
-4769.81
-3771.63
-3254.92
-3237.88
-4529.7
-8833.74
-6750.58
-7263.12
-5411.65
-5529.09
-4197.6
-4517.53
-3731.29
-3106.53
-4224.49
-7115.74
-6584.4
-5463.44
-5162.48
-4163.49
-3993.64
-3336.05
-3448.28
-2072.26
-3548.29
-4527.52
-3273.13
-3315.43
-1739.76
-6986.18
-5914.38
-5474.31
-4272.36
-2279.93
-1091.51
-3148.08
-2355.68
-3708.07
-1507.67
-984.911
-354.01
-4490.14
-3088.75
-1281.76
-905.981
-2781.62
-976.707
-699.625
-181.835
-1553.8
-1309.85
-1128.25
-1813.17
-2198.66
-2060.93
-1481.5
-2400.61
-1823.87
-967.073
-759.782
-1194.32
-112.402
89.6118
478.58
105.914
-2164.74
-654.747
-3192.97
-292.343
-2162.38
-744.222
-3160.84
-315.383
-1987.87
-585.5
-2921.75
-226.473
-3903.29
-1062.17
-3163.66
-877.454
-2753.72
-878.719
-2199.31
-514.722
-2771.6
-336.343
-4808.99
-1204.68
-3756.01
-796.665
-3038.9
-670.567
-2566.58
-438.098
-2898.85
-383.293
-574.993
-179.889
-20.8877
47.8281
-219.609
-68.5467
-12.5889
10.8315
-599.992
-181.732
-26.6782
36.6994
-227.743
-62.9988
-33.1374
-12.9492
-650.17
-186.827
-48.0823
11.8966
-306.851
-61.3246
35.2676
48.3691
-12.9403
44.7574
115.24
96.3072
227.126
141.072
98.9992
54.238
-448.662
-109.468
36.5159
96.6276
-358.834
-64.6719
5.25369
81.2496
-675.702
-182.328
-25.863
52.0336
-545.953
-118.846
-17.6693
100.537
-203.77
-23.6826
50.6557
75.3816
-172.294
-9.35313
17.7709
52.0586
72.5908
74.5342
59.1643
36.1078
42.6017
56.5436
36.3553
29.7274
-806.239
-241.949
-29.9834
84.2575
-894.962
-242.958
-90.2684
95.6553
-793.035
-231.848
-26.5472
87.0323
-870.484
-232.548
-89.2672
96.0679
-767.493
-214.751
-53.0475
59.9386
-813.553
-212.68
-103.986
78.1299
-573.782
-147.744
-59.9329
16.1793
-871.224
-216.677
-132.057
92.0922
-532.466
-117.338
-46.645
62.0241
-758.073
-172.254
-83.3499
56.2429
-314.837
-63.227
-16.2276
9.98103
-730.919
-164.236
-79.6275
57.2265
-307.489
-61.02
-17.1543
8.43392
-667.911
-145.748
-83.1094
53.2348
-277.831
-53.0683
-15.0175
8.78044
-582.684
-124.833
-92.7143
43.0541
-244.65
-44.7862
-20.1539
6.08355
-482.833
-96.42
-76.6611
33.544
-165.497
-24.8932
-21.8011
4.39098
-295.991
-41.4962
1.32905
45.8947
-63.7056
11.7881
11.4431
17.2526
-409.343
-75.1267
-32.892
40.7231
-96.6785
-2.65947
-4.94394
10.7401
-144.863
1.43686
22.2451
43.1677
-12.8251
29.6187
25.4663
21.4293
29.0564
49.6638
32.4677
29.6446
60.2912
52.765
31.6997
21.1647
8.73916
1.87991
0.494549
0.167791
0.0801457
3.40039
0.851951
0.246428
0.0879624
0.0429024
9.17476
2.43775
0.783328
0.300267
0.151023
4.50897
1.61256
0.60331
0.247099
0.127253
11.1828
3.35881
1.18735
0.476492
0.243326
12.8722
4.76062
1.89585
0.797949
0.413834
15.7369
5.92897
2.37603
0.995216
0.512094
17.6631
7.55362
3.16534
1.33953
0.687968
14.8859
4.58131
1.69354
0.691579
0.354057
12.5264
4.03904
1.52625
0.628188
0.32236
12.8596
3.68905
1.32686
0.538939
0.276379
10.166
3.42817
1.36841
0.580535
0.302702
16.2124
5.44449
2.0713
0.849286
0.43321
12.3546
4.60386
1.82598
0.760347
0.390054
14.6819
6.1997
2.58168
1.08951
0.558793
12.0251
5.11974
2.13226
0.899219
0.461038
10.4024
1.78702
0.415505
0.132515
0.0617692
5.03056
0.747447
0.162695
0.050689
0.0234813
10.4585
2.06687
0.578139
0.20966
0.103585
5.03091
0.839383
0.218794
0.0776566
0.0381788
10.1089
2.3651
0.764304
0.298087
0.151155
4.62367
1.13746
0.40389
0.16613
0.0862822
10.1564
3.00616
1.135
0.473934
0.246337
5.62542
1.68745
0.665477
0.284011
0.149159
7.39897
3.03009
1.29828
0.56708
0.299571
-2634.91
-5232.38
-2786.26
-5296.76
-3161.04
-5424.25
-3581.86
-5654.54
-3530.37
-5721.3
-1604.13
-2258.07
-2428.48
-3594.74
-926.398
-1189.71
-337.974
-410.052
-14148.2
-3461.15
-817.792
-190.224
-50.3882
-3852.87
-1071.25
-292.263
-69.0015
-16.0997
-13851.4
-3368.62
-796.605
-184.089
-49.1825
-3933.85
-1189.77
-301.548
-72.7482
-19.1698
-12996
-3151.98
-745.013
-172.401
-46.2258
-3812.27
-1145.2
-289.546
-69.562
-18.4104
-11649.9
-2814.17
-665.63
-154.389
-41.5448
-3655.09
-1077.19
-269.536
-64.3133
-16.962
-9564.97
-2306.25
-547.356
-127.505
-34.4782
-3381.62
-975.002
-242.203
-57.5913
-15.1851
-4431.35
-1115.87
-269.887
-63.5699
-17.3198
-1659.1
-481.458
-118.551
-27.7306
-7.30786
-6663.42
-1655.18
-396.923
-92.8858
-25.2016
-2418.1
-697.746
-173.509
-41.2756
-10.9722
-2583.32
-655.442
-159.354
-37.7604
-10.3272
-944.553
-281.925
-68.8486
-16.0618
-4.26403
-886.152
-223.191
-54.3589
-12.9284
-3.5423
-366.627
-99.88
-22.7
-6.46925
-1.36824
-1239.95
-2553.48
-7944.17
-559.802
-8567.52
-3798.76
-8369.09
-4001.02
-15233.5
-8141.79
-16928.4
-8894.32
-39.1002
-121.859
-191.758
-229.107
-184.946
54.2091
-69.8813
-217.108
-341.915
-405.767
-340.324
-50.1432
-29.2255
-28.0851
-87.8372
-85.5006
-125.368
-127.739
-111.663
-124.413
-75.9388
-117.576
14.9061
-61.7384
692.128
1588.49
2659.94
1891.4
1661.55
663.256
546.603
1455.78
2461.06
2949.17
2460.66
1001.17
-34.9436
-29.2033
-21.8593
-13.4824
-4.55139
-108.963
-91.129
-68.2684
-42.1373
-14.2308
-171.347
-143.187
-107.182
-66.1152
-22.3214
-204.577
-170.814
-127.754
-78.7533
-26.5786
-165.49
-138.497
-103.795
-64.07
-21.6361
44.8861
34.2461
23.4528
13.5599
4.43957
-62.3317
-51.9709
-38.8095
-23.8924
-8.05747
-193.702
-161.568
-120.714
-74.3539
-25.0831
-304.612
-253.652
-189.207
-116.402
-39.2439
-360.706
-299.605
-222.95
-136.92
-46.1215
-301.906
-250.19
-185.786
-113.931
-38.352
-45.8796
-39.3065
-30.049
-18.7847
-6.37789
-26.1598
-21.905
-16.4294
-10.1498
-3.42936
-25.1614
-21.0922
-15.838
-9.79354
-3.31071
-78.6527
-65.8931
-49.4504
-30.5649
-10.3302
-76.5926
-64.1998
-48.2045
-29.8069
-10.0763
-112.212
-93.9604
-70.4768
-43.5425
-14.7127
-114.296
-95.6653
-71.7235
-44.2966
-14.9646
-100.097
-83.9609
-63.0778
-39.0156
-13.1902
-111.207
-92.9617
-69.6019
-42.9379
-14.4964
-68.6252
-58.0673
-43.9569
-27.3237
-9.25771
-104.934
-87.537
-65.387
-40.2551
-13.5743
10.885
6.89782
3.73234
1.73126
0.502426
-55.5433
-46.702
-35.0901
-21.6641
-7.30951
600.928
486.565
354.143
214.473
71.8682
1366.84
1098.04
795.33
481.237
161.63
2248.47
1781.33
1281.07
776.095
262.984
1580.5
1243.97
894.687
544.098
184.954
1416.9
1117.57
799.471
479.876
154.479
586.444
471.674
342.075
206.191
64.5441
474.713
384.453
279.847
169.465
56.7753
1256.82
1012.5
734.58
444.52
149.104
2103.81
1680.33
1212.76
733.248
246.589
2495.64
1976.82
1420.5
858.856
289.792
2078.71
1642.14
1177.68
711.3
239.156
851.721
677.401
489.13
296.979
99.8815
47.3441
131.781
205.014
247.579
211.141
-13.2836
83.142
232.615
360.917
427.477
362.048
70.7709
35.0151
32.73
94.9895
91.776
134.877
136.78
123.843
135.251
96.0548
119.131
36.6458
81.5097
-630.182
-1495.38
-2508.35
-1721.89
-1507.15
-524.81
-522.864
-1420.52
-2395.29
-2850.63
-2339.63
-868.884
42.4387
35.603
26.76
16.5624
5.60218
117.987
98.8376
74.174
45.8501
15.4977
183.408
153.494
115.081
71.0827
24.0167
221.382
185.172
138.755
85.6703
28.9389
189.297
158.812
119.339
73.8317
24.9649
-7.87906
-2.86277
0.404077
1.3423
0.626875
74.4007
62.2892
46.7214
28.8703
9.75673
207.828
173.659
129.996
80.1986
27.0793
321.947
268.514
200.636
123.608
41.7069
380.541
316.64
236.071
145.205
48.9553
321.759
267.242
198.921
122.225
41.1889
64.5941
55.2412
42.2128
26.4087
8.97484
31.4196
26.3921
19.8624
12.3057
4.16457
29.3798
24.6892
18.5887
11.5204
3.89947
85.1518
71.4387
53.6941
33.2304
11.2393
82.2939
69.0635
51.9255
32.1437
10.8731
120.852
101.332
76.1172
47.085
15.9208
122.513
102.678
77.0916
47.6691
16.1149
111.15
93.3775
70.2716
43.5279
14.7279
121.061
101.374
76.043
46.9855
15.8771
86.8829
73.6228
55.8408
34.7778
11.7979
106.65
89.3097
66.9825
41.3756
13.9785
35.6523
32.4876
26.1489
16.9073
5.83012
73.5817
62.1619
46.9699
29.1495
9.86705
-545.33
-439.841
-318.963
-192.677
-64.4946
-1283.54
-1028.27
-742.991
-448.932
-150.738
-2111.55
-1665.22
-1192.89
-721.193
-244.429
-1418.66
-1098.9
-778.584
-468.52
-158.467
-1262.42
-973.914
-680.566
-399.993
-125.556
-443.799
-335.474
-226.802
-127.402
-35.807
-453.523
-366.763
-266.621
-161.32
-54.03
-1225.55
-986.572
-715.351
-432.767
-145.166
-2044.39
-1629.96
-1174.5
-709.406
-238.509
-2403.71
-1896.08
-1357.01
-818.117
-275.708
-1962.29
-1536.83
-1092.54
-655.361
-219.472
-722.295
-558.371
-391.456
-232.056
-76.8907
-1915.07
-1181.44
-522.24
93.756
298.264
372.945
9.21484
-12253.9
-2846.1
-3923.21
-1824.67
-216.962
-3556.64
239.268
1470.12
538.39
-6774.27
-3384.46
-1232.86
-996.905
-3231.96
-1667.22
-598.075
-1134.02
984.299
401.151
-752.041
-578.255
-8322.05
-3686.51
-4909.24
-2396.02
-3276.29
-4158.07
-1337.4
383.673
-903.059
-1078.4
-701.05
-498.499
-401.83
-297.503
-800.45
-543.882
-358.067
-220.281
-89.3783
-443.025
-350.18
-250.026
-149.983
-50.2471
85.9398
73.8756
56.7281
35.6217
12.1408
266.506
222.429
166.054
102.089
34.3814
332.916
277.63
207.177
127.375
42.9032
14.5342
17.2879
15.8165
10.5873
3.59282
-8075.24
-6223.68
-4646.33
-3668.05
-2978.83
-1897.5
-1214.73
-944.773
-725.86
-389.549
-2733.21
-1914.5
-1378.67
-935.085
-444.124
-1186.51
-745.961
-550.468
-382.455
-148.115
-168.472
-125.214
-89.7464
-58.6008
-22.7066
-2826.62
-2158.09
-1521.59
-938.655
-344.757
225.066
191.657
141.321
83.5303
26.4499
1236.83
971.431
689.213
410.183
136.194
477.363
392.633
287.805
173.934
57.7926
-4374.35
-3455.68
-2602.45
-2073.91
-1676.69
-2353.79
-1640.66
-1175.67
-780.511
-348.396
-993.384
-760.988
-544.765
-342.075
-125.969
-808.76
-620.17
-440.143
-270.475
-95.8881
-2595.76
-1982.13
-1403.82
-862.193
-309.923
-1374.48
-1064.71
-756.808
-460.539
-158.216
-489.988
-376.941
-265.808
-160.519
-55.1497
-956.054
-753.558
-539.261
-325.815
-110.235
861.02
701.668
512.33
309.875
103.377
361.21
302.788
225.852
138.078
46.1555
-620.722
-481.029
-341.808
-207.788
-71.6869
-478.289
-370.554
-262.673
-159.031
-54.4615
-4917.22
-3161.99
-2338.82
-1802.73
-1330.17
-2611
-1848.03
-1274.72
-808.274
-329.412
-3222.76
-2332.71
-1629.31
-1094.1
-471.778
-1759.71
-1290.66
-893.776
-561.786
-224.417
-2650.23
-2030.55
-1437.7
-877.973
-308.076
-2926.54
-1966.19
-1382.98
-898.118
-346.363
-1117.43
-873.867
-622.335
-375.835
-127.672
346.373
291.41
218.307
134.032
44.9533
-734.479
-562.034
-396.705
-241.681
-84.0405
-13.5516
-28.0319
-44.6087
-84.0554
-169.487
-310.862
-26774.7
-23762.4
-22156
-25155.9
-19842.5
-15849.9
-17506.5
-13398.6
-23920.9
-21497.6
-22113.7
-21231.5
-19549.4
-16825.4
-20709.4
-22435.3
-20179.3
-18133.7
-20342.8
-17104.5
-14526.8
-14936.2
-12026.9
-21829.9
-19971.6
-20203
-18886
-17643.2
-16403.4
-17340
-18010.4
-16593.5
-14589.3
-15905.2
-14505.3
-12557.1
-12630.3
-10819.1
-18599.2
-17567.1
-17371.5
-16481.5
-15230.6
-14056.9
-14986.6
-12942.3
-12222.4
-10496.4
-11119
-11030.5
-9942.51
-9526.44
-8621.73
-13864.4
-14203.6
-13119.1
-13454.4
-11800.1
-10736.6
-12053.8
-8432.94
-8080.96
-6834.36
-7132.91
-7480.02
-6799.77
-6352.18
-5822.34
-9302.98
-9436.93
-8896.54
-8912.41
-8155.87
-7414.59
-8139.18
-3063.62
-2959.05
-2486.22
-2576.48
-2778.05
-2586.09
-2339.57
-2167.1
-3494.65
-3564.38
-3302.04
-3242.23
-3065.36
-2817.12
-3056.93
-9757.44
-9568.52
-14858.4
-16013.4
-9090.92
-8048.55
-13031.6
-10595.1
-7044.55
-4811.38
-7035.74
-4906.09
-7026.65
-6820.12
-5131.46
-9658.76
-9160.81
-13332.9
-14507.9
-8491.39
-7641.32
-11616.3
-9923.31
-6985.59
-4036.57
-6891.93
-4338.78
-6306.91
-6142.51
-4851.28
-8709.56
-8279.08
-11335.5
-12152.6
-7735.41
-7120.1
-10124.8
-8874.06
-5682.45
-3957.26
-5663.06
-4293.98
-5244.7
-5296.01
-4624.29
-6875.59
-6586.53
-8499.09
-8945.24
-6208.71
-5739.26
-7824.75
-7059.25
-5059.03
-3278.88
-4980.22
-3583.11
-4627.74
-4635.2
-3840.98
-4644.96
-4476.01
-5605.84
-5836.4
-4159.74
-3803.54
-5249.27
-4768.97
-3412.27
-2337.84
-3352.86
-2545.97
-3128.44
-3103.92
-2615.06
-1709.19
-1650.34
-2045.54
-2119.18
-1531.43
-1394.98
-1929.44
-1763.24
-1136.83
-842.33
-1188.47
-942.23
-1145.4
-1127.21
-941.568
8910.17
28678.9
7131.8
29969.1
5273.04
30701.8
8156.2
46350.7
9989.91
63457.9
10021.5
46796.6
9761.39
39154.8
10176.1
34445.4
6142.26
3942.61
16537.3
9949.62
5909.93
3203.6
17640.4
8721.35
6920.46
5252.35
21778.1
15947.1
5246.94
4026.54
21837.4
16460.1
12436.9
5324.59
10846.3
4934.86
5187.57
11876.9
41114.1
10932.9
14760.9
4640.99
51930.1
13782.1
13406.8
4190.22
29987.4
9169.79
15388
5149.75
26626.1
8362.53
9184.78
4554.19
11895.6
4765.6
10058
5402.68
11744.8
4651.19
12292.7
7103
10089.7
4541.89
14252.6
5248.74
4811.14
1716.79
16147.6
11485.9
9630.26
7122.08
16601.9
13655.3
8869.26
7561.84
9692.72
6826.02
14432
10123.9
6063.56
4450.58
2710.57
2211.17
5444.18
4623.61
2396.31
2348.34
6181.17
4161.3
2861.89
1822.27
9072.06
5074.97
7110.83
8415.96
12985.1
9363.68
10767.4
14747.2
5742.13
2817.44
4017.17
4690.77
2626.15
1143.46
1552.65
1655.25
13072.1
23272.9
8688.38
25795.2
15069.5
22579.6
10599
26667.7
16672
20121.1
13315.5
25491.5
16625.3
17886.3
14197.5
14163.6
15190.4
17951.3
18602.3
20099.9
21659.5
30640.6
14670.4
12816.2
12216.4
14012.8
21110.1
27296.4
24647.9
31413.2
30575.4
24914.5
23275.2
30753.2
29745
21408.7
21097
28527.4
28394.9
13347.2
10800.8
14307.2
13009.8
16630.1
15782.7
18812.1
18815.5
25655.5
27032.7
12311.9
11233.4
13236.7
13921
14720.3
16903.6
17136.2
20462.3
22263.9
27028.5
10642.7
8360.03
6975.86
8517.25
12999.1
15051.1
8694.46
13254.6
6451.4
8040.83
10029.1
8344.81
1779.54
5452.57
578.134
1718.54
4227.45
8605.76
1228.16
2714.76
1190.02
4977.31
327.168
1546.37
6667.02
6615.35
7741.35
5049.29
10878.3
8903.09
12921.9
9300.89
1868.41
3544.63
3827.87
2316.54
1822.71
2316.9
2606.16
1954.02
19955.7
12257.4
3956.55
22381.3
13040.2
4299.42
19111.3
12089.2
4158.81
21853.1
12990.1
4285.85
17494.5
11104.5
3689.87
21101.7
12929.7
4335.35
7704.45
4646.81
1423.34
10912.5
7314.81
2502.95
13816.4
9469.41
3260.53
16532.5
10853.2
3629.83
20717.7
13129.8
4553.14
8727.13
5392.15
1880.46
10891.1
7946.38
3036.09
13623.2
10012.6
3731.96
16920.1
11924.8
4319.38
21024.6
13420.1
4814.6
255.829
2041.71
2814.92
4133.77
2490.95
2766.25
6144.75
5742.9
562.794
896.418
598.875
928.114
412.536
1253.14
777.125
1653.49
2889.24
1446.93
3810.72
2259.89
1930.23
3266.56
3273.72
188.248
6680.69
1057.39
-2763.8
-361.364
1251.41
467.783
504.122
32.7096
8643.65
3481.63
2304.29
1276.28
8775.09
3583.45
2915.98
1599.76
8717.67
3807.88
4072.91
2477.6
2686.62
1667.24
668.917
692.241
13069.9
11335.2
5934.29
6014.3
15158.4
13956
7295.33
7176.82
4800.01
4823.45
10426.1
8378.92
3223.17
3396.7
1355.19
1769.56
4205.27
4133.57
1867.71
2127.67
2468.68
2758.71
942.167
1528.32
3879.48
2267.92
3732.49
2166.93
6377.48
3094.26
5779.98
3107.72
2011.62
1480.53
2198.55
1284.69
708.34
683.635
1215.53
626.532
9845.01
5893.34
4317.11
3818.02
9846.23
6209.68
4310.17
3812.66
10483.3
6851.02
4374.77
3787.5
14358.6
16761.1
12084
7333.85
3408.31
15825
13371.3
11315.5
8406.44
4354.6
14726.4
12242.6
8964.72
6172.17
3105.23
4147.36
3093.68
3407.34
3257.87
4559.41
3278.41
3557.09
3346.7
5260.8
3741.65
3790.25
3526.05
11860
8489.84
9950.04
6786.13
7015.26
5328.71
5751.67
4446.85
3662.21
3681.31
9905.87
8628.02
7941.89
6743.62
6059.66
5194.35
4589.57
4139.89
2813.69
3476.96
7055.68
4804.81
4550.18
2875.16
10028
7686.47
6747.43
5534.77
3328.99
2034.23
4970.59
3552.61
4298.8
2064.31
1267.29
682.166
4941.01
3626.83
1389.97
1171.35
3384.67
1476.5
1076.99
510.818
2307.44
1938.96
1553.82
2090.83
3333.07
2832.11
2012.13
2647.26
2342.61
1345.61
1126.36
1423.5
508.051
198.239
-147.478
112.682
1972.29
832.863
244.06
2036.63
568.854
153.072
2158.31
965.677
295.172
2123.38
621.386
175.139
2353.56
1119.56
308.869
2246.36
688.69
174.534
5542.34
3101.64
862.474
4192.68
2192.04
613.957
3382.93
1706.28
500.375
2750.16
1316.28
335.167
2375.74
727.434
144.512
6547.74
3573.49
1109.06
5007.61
2581.83
775.149
3864.25
1946.39
587.159
3022.56
1368.17
374.965
2594.23
707.487
183.834
1178.19
375.668
94.2676
-12.4747
486.128
159.805
45.7334
3.07548
1230.63
400.288
111.856
3.96618
597.196
205.537
86.634
34.4936
1288.05
426.585
146.319
35.047
936.861
344.584
94.8044
14.6939
593.632
252.783
31.2941
-25.1548
405.162
209.369
74.1056
27.6741
966.553
349.579
80.8742
-34.2388
779.711
274.801
99.6803
-21.4255
1213.19
405.059
126.721
2.16093
1042.22
343.682
125.239
-33.4569
680.56
271.667
72.2326
-13.7042
532.656
205.315
84.8843
4.89208
385.002
180.489
72.149
30.1516
287.179
132.141
66.0331
27.3338
1461.58
458.176
115.067
-36.1645
1361.26
417.024
151.238
-45.1385
1448.71
456.54
117.915
-35.1182
1318.79
402.581
150.624
-44.9514
1405.84
445.714
144.656
-9.90812
1239.26
376.705
163.15
-27.2496
1207.49
393.473
162.351
39.7135
1350.9
410.316
207.506
-27.385
1035.72
334.659
148.493
6.63379
1002.12
286.446
123.316
-19.098
382.012
102.629
34.9667
2.56909
1049.09
302.462
128.144
-16.8647
403.8
109.783
39.456
5.98261
1098.02
320.811
141.923
-10.214
426.042
118.404
44.3473
9.39742
1004.48
297.647
150.809
-1.53444
424.925
120.547
53.8464
15.1037
917.537
283.332
146.434
9.94583
387.95
121.199
63.8109
21.4174
574.691
187.537
73.6264
2.50637
327.69
124.031
54.8085
22.2464
709.802
217.683
99.3988
3.82071
358.834
124.546
61.0457
22.9074
412.399
149.744
58.7192
7.3786
251.132
106.034
44.9236
20.7386
228.197
102.605
50.3411
21.2701
159.318
80.6286
39.3316
21.4419
0.210979
0.887412
0.483437
0.213868
0.108369
0.741817
0.541003
0.263907
0.114067
0.0574519
3.75583
2.19916
0.992772
0.418075