/*--------------------------------*- C++ -*----------------------------------*\
  =========                 |
  \\      /  F ield         | OpenFOAM: The Open Source CFD Toolbox
   \\    /   O peration     | Website:  https://openfoam.org
    \\  /    A nd           | Version:  11
     \\/     M anipulation  |
\*---------------------------------------------------------------------------*/
FoamFile
{
    format      ascii;
    class       volScalarField;
    location    "0.8";
    object      gradTy;
}
// * * * * * * * * * * * * * * * * * * * * * * * * * * * * * * * * * * * * * //

dimensions      [0 -1 0 1 0 0 0];

internalField   nonuniform List<scalar> 
5712
(
13556.6
7824.65
21728.7
14382.3
23818.7
17754.9
36785.7
46453.7
48636.8
60397.2
31742.4
27824.5
20124.6
16136.3
10198.3
6924.61
21983
21814.9
19233.6
22217.7
29589.3
25642.5
34929.6
27439
9373.15
6581.32
5338.81
4035.05
10974.4
8908.64
6816.93
5674.18
21349.2
21543.4
21121.9
16839.1
15790.7
12919.3
12741.8
14682.1
20424.5
20546
44073.1
45853.1
30324.6
31546.7
18502.2
15609.4
19463
13718.6
9080.94
9513.18
7996.92
12488.4
4220.31
5463.12
10860.1
16438.3
6592.94
8107.92
11662.5
21873.7
8232.11
14416.8
3067.73
8464.67
2565.71
6287.21
18879.1
23560.8
20115.6
23842.2
22716.8
22669.5
23772.4
22756.3
17649.3
24304.1
17587.9
23723.6
20103
23908.6
20261.5
23981.8
24359.8
22697
24479.7
22597.9
16504.4
24571.4
16054.7
24764.3
21616.9
26823.5
27288.3
40309.8
22945.2
31610.8
27066.1
44549.5
20495.7
23342.6
27386
38425.1
20333.5
21761.5
27727.6
38065.3
7720.45
10476.9
20025
36512.6
9273.29
10848.1
25109.5
40396.5
11060.4
11258.6
30879.9
43283
26518.5
26693.8
24083.2
24852.4
39582.8
26436.4
26327.8
24315.9
22243.2
46296.9
24287.1
25147.8
23823.6
25881.4
51440.8
2768.62
3370.29
6188.15
15505
3834.42
4485.58
8148.33
16591.1
5443.7
4630.3
10599.7
17960.6
25147.2
23116.1
23757.2
21587.9
22107.4
18504.1
17500.5
14620.8
13407.9
20059.5
23371
21167.2
24720.8
22932.9
22807.5
20266.1
20209.6
17496.8
14042.1
19593.1
25128.8
27774.5
25248.6
28774.6
23271
23430.3
22951.2
24006.5
24097
24248
23856.9
23424.6
25134.5
29027.8
25122.8
29125.5
22409.1
24515.2
22317.7
24571.1
24182.2
24183.8
24251.6
24234.6
21268.1
20104.2
14034.5
16069.7
21217.6
19697.2
13894.7
16473.1
21490.8
19964
14312.7
15987.7
21582.6
19749.4
14756.5
15947.9
2025.74
1162.57
702.943
1063.01
580.247
511.57
2886.78
1372.39
895.845
1988.23
1376.5
1026.26
3022.92
1945.09
1709.27
3384.9
2361.04
1913.7
19701.6
15350.2
12688.6
18906.7
15249
12846.8
14106.8
11333.5
9784.16
10448.7
7588.08
6299.35
5247.99
3162.5
2364.41
18361.4
14569.8
11972.6
19881.9
15477.4
12600.3
15601.8
11223
8884.57
10767.6
7060.44
5510.35
5513.79
3082.67
2151.92
28905.3
27581.4
32120.3
28090.2
33318.9
28206.2
41168.8
30335.4
21515.2
20928.5
21448.7
19187.9
24293.6
21980.2
24172.1
19912.6
23859.7
23217.5
21917.2
22944.9
27907.6
25631.2
30048.5
30789.8
33496.2
34982
24443.6
25649.7
21937.4
21447.5
25949.1
26811.2
15684.8
8196.93
14856.7
9092.57
16031.6
8262.78
14910.9
9022.47
15941.3
8282.82
15038.8
9427.26
14758.1
9872.65
15001.3
9738.86
21321.7
17522.4
21660.7
17768.1
24138.7
21233.3
24935.4
21350.4
20683.7
14217.8
21137.5
13819.4
22472.7
17837.8
22909.3
17669.9
25981
21378
26184.4
21176.8
20751.1
14364.2
20795.2
14275.2
12935.5
8235.12
10783.3
6859.51
11799.5
7306.06
10219.7
6380.03
13394.1
8772.03
11018.8
7073.6
13451.1
9052.48
10976.8
7099.36
2364.84
1189.53
4308.68
2413.71
2492.91
1418.21
4557.14
2808.81
3021.08
2096.64
5006.73
3565.93
11947.8
19461
8416.52
7962.88
5703.32
18622.3
12285.7
6831.62
6839.81
4636.34
19976.6
15066
11521.6
8671.13
5533.58
598.844
364.616
1467.32
1065
795.905
452.697
1898.37
1423.86
1343.77
843.165
2608.59
1991.38
18192.3
16251.6
11572.9
10046.1
7050.86
6290.28
5793.13
4563.86
3828.28
2912.44
17504.3
14722.8
12830.6
10157.3
9470.25
7378.05
6932.17
5357.92
4701.04
4006.52
13632.8
9864.2
13981.1
9941.36
17311.9
13384.1
17609.4
13646.2
11028.5
7863.46
10514
7646.56
14145.6
9959.12
14086
9966.38
17712.5
14141.6
17602.9
14162.1
11336.6
7868.39
11313.6
7958.44
8178.16
5959.67
5537.03
4976.48
7762.06
5669.44
5268.81
4617.19
8574.33
6138.19
5691.44
5257.41
8749.19
6133.33
5901.67
5319.49
720.168
574.367
441.86
3112.35
1498.26
1133.66
708.112
641.609
529.003
3481.11
1819.17
1426.63
1048.36
1059.88
1000.31
4036.21
2364.29
1936.98
13423.8
10801.2
9234.56
8294.71
6845.69
6043.7
5445.31
4555.87
4117.57
4128.38
3411.29
3016.59
4839.77
3034.06
2496.56
11819.6
9191.16
7620.87
7858.73
6072.9
5117.66
5800.9
4449.88
3768.4
4910.74
3662.6
3017.27
6115.52
3481.3
2785.68
4106.68
2118.26
1109.37
568.623
4616.78
2304.49
1173.78
589.494
4128.31
2120.23
1112.77
570.853
4709.56
2355.22
1209.52
609.412
4128.12
2106.95
1142.99
593.815
4810.74
2388.4
1269.9
647.113
5163.36
2517.15
1256.46
624.832
5269.58
2591.2
1267.05
626.99
4374.58
2244.52
1205.46
616.833
3665.4
1996.01
1113.65
580.96
3866.88
2042.71
1138.93
597.264
3405.47
1889.28
1073.61
565.822
4705.09
2389.77
1240.92
624.179
3815.23
2069.47
1134.85
589.877
4869.86
2478.55
1266.61
636.972
3872.36
2116.78
1155.67
603.356
3113.85
1815.52
1018.07
541.821
2154.01
1474.03
907.612
503.244
3129.48
1812.53
1021.12
543.376
2243.45
1498.27
915.495
506.846
3219.02
1822.79
1042.47
556.771
2501.34
1571.26
943.109
519.074
3208.9
1794.41
1038.3
571.741
2732.94
1628.07
983.186
531.012
3054.39
1760.1
1026.5
557.066
1338.31
1216.64
734.884
217.027
591.53
1083.83
671.444
212.123
1491.88
1268.39
756.007
228.627
748.85
1138.53
689.067
217.429
1796.07
1363.12
784.093
229.71
1037.3
1234.67
713.759
221.246
2192.79
1482.35
834.647
249.988
1384.32
1348.89
751.884
232.42
2502.25
1599.71
898.29
286.339
1572.26
1447.9
788.5
242.618
2735.93
1736.86
925.69
278.928
1592.87
1576.84
856.399
260.801
2645.39
1678.92
908.082
277.618
1509.76
1519.92
822.588
250.705
2780.1
1773.2
927.456
263.656
1609.32
1618.68
872.649
262.253
2833.24
1804.56
943.99
266.991
1681.53
1652.48
890.375
266.99
310.13
167.416
83.9998
37.764
10.6567
310.248
167.595
84.1627
37.843
10.6784
314.446
169.471
84.7451
38.0259
10.7212
317.543
170.189
85.1158
38.1866
10.7641
324.738
172.214
85.6565
38.343
10.7995
327.687
172.959
86.155
38.5692
10.8607
329.171
175.78
87.4442
39.0756
10.9916
335.268
179.327
89.0759
39.7326
11.1637
334.627
175.395
86.8978
38.8069
10.9173
350.47
178.488
87.7049
39.0528
10.975
335.521
174.386
86.3141
38.5614
10.8525
349.684
177.179
87.0796
38.8051
10.9109
336.496
177.797
88.024
39.2547
11.0336
356.671
180.781
88.7003
39.4468
11.0775
344.376
181.297
89.5484
39.862
11.1924
364.921
183.916
90.0037
39.9631
11.2127
313.977
167.676
83.8941
37.6952
10.6369
323.1
168.193
83.8493
37.6539
10.6248
318.322
169.334
84.4733
37.894
10.6853
326.914
169.512
84.3073
37.8105
10.6627
327.591
172.051
85.3518
38.1942
10.7588
335.295
171.919
85.1009
38.0825
10.7293
339.718
174.846
86.1961
38.4794
10.8286
345.072
174.449
85.9621
38.3856
10.8044
350.402
176.273
86.6628
38.6439
10.8695
15626.3
24447.4
16020
24438.7
16494
24260
16493.1
23770.1
15200.8
22087.9
13317.2
15166.7
13578.9
16375.2
13270
14811
13469.6
14907.7
14155.2
2454.27
534.29
122.539
22.1428
15789.9
4551.94
1124.04
260.455
47.029
14089.9
2405.85
521.296
119.338
21.5337
15673.8
4478.32
1104.4
255.176
45.7509
13845.9
2342.09
505.392
115.602
20.8651
15367
4367.54
1075.55
248.395
44.569
13272.4
2206.84
474.297
108.686
19.6642
14727
4168.66
1027.23
237.724
42.7275
12159.1
1975.7
425.702
98.304
17.8881
13537
3853.5
956.209
222.712
40.1996
10242.1
1738.24
389.412
92.0665
16.9787
10482
3161.46
811.875
193.747
35.5276
10847.3
1808.44
399.332
93.5377
17.1526
11427.7
3430.51
870.104
205.229
37.3213
9977.25
1711.05
385.596
91.5404
16.9237
10104.6
3030.77
780.432
187.288
34.5142
9896.96
1690.78
380.933
90.5415
16.7376
10049.5
2993.72
769.526
185.284
34.1283
37471.2
54895.5
53298.3
36050.3
20313.4
21541.9
30143.7
31886.2
24238.1
27605.4
39359.1
54808.2
50126.9
67459.3
32329.1
37329
24954.5
26962.2
13372.6
14783.2
4426.26
2669.84
315.047
192.02
213.783
174.729
255.35
3945.7
3456.17
1934.41
2490.89
2102.34
822.6
1295.57
1009.39
594.569
705.482
526.35
3670.91
1583.69
737.606
633.578
956.783
790.278
542.531
457.877
361.45
299.044
504.732
443.924
4029.2
2149.37
2546.11
1368.87
998.849
1641.24
541.795
334.141
622.941
8476.65
7561.08
6742.71
6572.82
9528.41
5552.58
5642.51
5404.88
5360.65
5766.34
797.094
1066.95
1224.56
1305.12
1339.03
493.18
675.617
791.644
855.576
883.155
549.319
752.603
881.062
950.679
980.003
450.525
620.822
731.105
792.645
819.236
652.004
884.676
1026.82
1101.68
1132.85
7821.38
7208.31
6264.14
5799.93
8155.86
6846.06
6182.61
5257.83
4759.82
5067.85
4186.5
4443.02
4250.45
4073.71
4125.71
5023.97
4708.38
4054.38
3614.23
3480.95
4239.05
4022.7
3480.75
3063.15
2880.74
1946.65
2351.76
2466.27
2469.18
2463.44
2908.93
3250.2
3206.45
3091.71
3048.97
2307.3
2645.6
2653.27
2565.32
2506.52
1447.62
1823.86
1978.08
2020.82
2028.89
1684.01
2059.3
2176.23
2181.22
2167.82
1293.7
1652.4
1811.27
1861.32
1871.58
7410.46
7043.18
6288.55
5978.53
8464.68
3540.69
3955.88
3949.73
3901.13
3999.71
1774.08
2196.96
2354.73
2397.18
2414.74
1543.1
1948.9
2126.6
2193.18
2222.69
2251.83
2707.48
2847.08
2881.54
2922.2
1902.05
2362.48
2548.54
2618.72
2660.55
1338.53
1725.57
1919.52
2008.12
2048.56
1141.44
1492.51
1676.39
1760
1793.6
911.167
1210.69
1376.22
1452.49
1480.42
759.593
1021.8
1175.64
1252.5
1282.98
1247.24
1607.78
1780.29
1847.14
1869.8
1106.62
1446.4
1622.68
1700.38
1730.05
7896.15
7274.43
6537.53
6344.44
9114.72
4609.56
4893.5
4804.33
4798.06
5084.98
5568.8
5839.53
5522.01
5418.27
6091.32
3139.55
3653.04
3779.51
3830.65
3943.43
2363.4
2867.43
3045.44
3113.22
3175.41
3676.1
4129.04
4153.28
4139.24
4278.16
1336.8
1722.45
1913.27
1997.68
2034.7
843.975
1126.01
1287.14
1366.59
1398.68
1521.73
1931.23
2117.63
2193.12
2227.91
21736.3
14638.7
22238.2
16144.9
28244.2
42008
29808.7
42027.9
22627
23516.5
19646
23041.7
24892.6
23124
32896.5
26045.6
17334.6
17089.9
8493.48
7609.42
18732
17896.1
9671.74
8209.5
23538.6
25092.6
23539.5
20988.8
24642.8
16152.8
12807.8
14771.1
20768.2
20670.8
44301
46053.2
29926.3
31494.6
19684.9
15899.8
20862.9
14011.9
10238.4
9820.87
18873.9
21495.1
7830.66
8773.17
20485.2
24198.7
9652.81
10948.6
19043.6
27934.8
10971.2
17609.7
3729.89
9602.46
2707.48
6520.01
20558.7
23174.6
20567.3
23671.8
21412.8
21404.2
22938.4
22098.2
19606.8
24716.7
22367.9
24371.7
20229.8
23833.7
20282.5
23958.6
23981.3
22382.9
24378.8
22503.7
17238.3
24789.2
16222.9
24828.8
23329.1
28932.4
28130.7
41313.3
25630
34877.9
28427.5
46121.4
21352.1
24431
27831.6
38986.7
20576.5
22081
27861.8
38246.5
26082.2
27974.6
33935.8
51440.3
25844.6
26131.5
36129.9
51809.9
24851.6
24115.6
38488
50700.6
20673.3
20425.1
23485.4
26732.6
43283.1
19417.1
19001.9
24765.8
23972.7
50177.3
20259.6
22248.9
23457.3
27470.4
53501.9
13615.6
11952.4
13846.4
19004.6
14997.5
13210.7
14264.6
19348.9
16694.1
13833.2
14785.6
19502
18255.4
16643.2
17940.7
16575.9
22358.3
19781.6
19275.9
16668.9
15338.2
20127.9
19465.5
18298.4
21704.7
20931.8
22103.7
20042.2
21323
18473.2
14959.5
19201.7
23912.9
26435.5
24738
28119.5
21527.7
21873.9
22172.5
23259.6
24057.8
24064.8
23660.6
23076.5
24910.5
28742.1
25059.7
29046.1
22063.3
24167.4
22218.3
24472.1
24170.8
24112.1
24246.5
24215.1
21579.9
20250.4
14368.7
16258.9
21760.3
19962
14500.1
16695.9
21649.8
20047.6
14485.5
16108
21631.6
19776.7
14814.1
15989
10593.6
10801.3
4846.46
4344.9
11839
11306
5426.28
5089.03
11437.3
10351.3
6098.8
5755.64
15475.4
14312
15959.9
15435
16930.8
15701
13547.1
11503.7
7318.7
5736.05
17368.2
15788.1
19777.4
18023.3
16790
14619.5
12825.7
10253.8
6624.2
4530.07
23300.5
21541.7
29859.3
25203.4
27078.9
23400.1
38769.3
28075.3
20701.6
16164.6
23208.1
17406.2
20491
16505.6
23322.1
17763.2
21644.4
18445.8
19251.4
17283.8
20662.4
22722.9
28694.7
30400.9
32569.1
34747.7
23177.8
25246.9
20690.4
21097.6
24281.9
26255.2
12486.6
8696.27
13195.1
9012.13
12831
8651.61
13489.5
8923.46
12848
8562.49
13647.8
9225.3
13896.2
9647.91
14697.6
9650.82
17259.9
16177.6
19678.5
16930.3
20618.1
19298
23155.3
20301.8
18623.7
13752.1
17105.6
13296.9
21508.5
17391.7
22627.5
17533.6
25176.2
20863.9
25962.7
21024.3
19696.8
14078.2
20474.3
14183.8
12292.1
8313.33
10716.9
7006.82
11371.7
7876.16
10422.3
6824.33
12955.1
8721.47
10925.5
7114.92
13306.1
9022.16
10941.8
7109.26
11517.6
10966.9
7954.54
7117.87
11678.5
11134.8
7837.31
7070.31
11659.9
10769.4
7670.97
7049.1
14555.6
18043.8
14675.7
10369
7393.99
16512.7
14771.8
15563.6
10143.1
7034.02
18372.5
15366.8
12846.6
10201.9
6627.67
10439.9
10026.2
6650.85
6525.06
10474.8
9935.16
6642.71
6499.25
9921.37
9217.29
6485.57
6090.9
15793.6
14066.5
13482.2
11998.2
12997.6
12204
9549.95
9060.87
6381.63
5805.31
16036
13721.4
13494.6
11190.4
11301.2
9585.34
9000.87
7845.42
5984.35
5554.29
13363.8
10169.8
13642.7
9940.31
16247.8
12821.7
16965
13283.9
11001
8115.85
10878.4
8484.36
13926.5
9908.68
14014.8
9943.37
17387.5
13940.2
17505.5
14100.6
11248.6
7923.75
11275.9
7962.2
8379.99
6341.86
5781.97
5340.01
8449.68
6677.07
5863.15
5480.44
8608.47
6259.22
5780.34
5413.54
8750.67
6159.8
5925.87
5361.2
10557
10204.2
12313.6
10568.4
10393.1
10037.1
11857.2
10119.9
9322.66
9219.69
10959.8
9381.49
12741.6
11682
10738.1
9920.83
11289
10879.5
9133.58
8545.83
10062.6
8410.44
11754.6
10452.2
9471.99
8640.48
8546.41
8135.63
8038.38
7371.51
9519.13
7389.25
4921.15
2588.45
1336.11
672.898
5125.65
2678.41
1372.89
684.999
4860.21
2554.03
1319.37
664.912
5112.92
2670.32
1380.35
692.63
4749.37
2485.62
1327.37
678.696
5109.05
2637.44
1412.92
719.073
5305.09
2664.59
1346.01
670.97
5310.89
2640.56
1296.89
642.711
4652.89
2444.84
1321.48
676.996
3864.47
2141.32
1198.38
626.17
4387.07
2351.37
1301
676.51
3773.84
2126.48
1194.89
624.663
4834.63
2502.05
1310.21
661.157
3911.55
2147.84
1185.08
618.594
4905.76
2514.69
1289.67
649.556
3900.82
2141.58
1172.31
613.053
4530.18
2431.85
1286.15
659.279
3970.68
2219.07
1218.02
633.395
4442.15
2393.73
1272.78
652.847
3917.51
2198.89
1208.36
630.038
4328.86
2334.46
1269.17
656.359
3895.62
2176.44
1201.86
627.803
4044.67
2217.76
1232.66
659.411
3798.43
2133.58
1203.55
621.751
3658.94
2101.1
1185.94
628.002
3271.16
2018.31
1033.23
286.983
2327.48
1897.95
981.498
291.021
3288.11
2019.5
1039.06
297.136
2387.89
1899.97
982.808
292.839
3330.42
2013.49
1030.95
288.011
2478.69
1895.48
972.662
287.768
3299.19
1994.79
1045.25
302.287
2461.41
1877.67
969.686
289.777
3153.21
1954.67
1062.9
333.08
2196.82
1831.39
959.724
289.639
2907.37
1869.62
1007.6
305.001
1727.21
1722.63
936.839
285.32
2987.65
1903.23
1029.01
313.411
1813.88
1767.06
944.528
285.849
2858.15
1842.62
974.179
278.725
1661.05
1692.76
916.922
276.176
2854.64
1826
958.981
271.908
1693.43
1674.68
904.221
271.415
361.744
191.228
94.2407
41.8105
11.7136
357.157
190.031
93.9539
41.735
11.697
361.536
191.041
94.0356
41.7021
11.6822
358.462
189.642
93.6156
41.5709
11.6508
367.273
191.136
93.7832
41.56
11.641
362.121
188.983
93.1539
41.3591
11.5922
352.25
186.76
92.2816
41.0131
11.5006
343.642
183.425
90.8971
40.4652
11.3566
365.516
189.795
93.1343
41.2873
11.5675
378.726
191.177
93.1578
41.2184
11.5427
375.2
191.646
93.6809
41.4752
11.6148
386.623
192.591
93.622
41.3914
11.5877
356.493
187.536
92.2967
40.9639
11.4826
374.655
189.254
92.3904
40.9214
11.465
351.205
184.633
91.026
40.456
11.3488
371.022
186.836
91.2864
40.4781
11.3483
373.194
193.179
94.606
41.8922
11.7302
392.343
195.047
94.8723
41.945
11.7404
374.166
193.151
94.4835
41.8203
11.7088
392.882
194.981
94.7774
41.8913
11.7244
378.653
193.278
94.2684
41.6971
11.6729
395.216
194.877
94.5684
41.7818
11.693
386.618
193.649
94.0722
41.5765
11.6374
398.504
194.43
94.2558
41.6383
11.6531
394.505
193.49
93.8995
41.4948
11.6146
17243
23139.7
17246.3
23045.4
17243.6
22825.7
16685.1
22268.3
15245.3
20809.7
13470.1
15250.6
13774.2
16302.8
13366.6
14892.9
13502.2
14937.6
13978.4
2390.3
520.155
119.842
21.7509
15043.2
4390.18
1091.71
254.532
46.1777
13848.7
2339.6
507.437
116.754
21.163
14900.3
4315.6
1072.56
249.453
44.946
13525.2
2274.45
492.309
113.247
20.534
14582.6
4208.18
1045.39
243.113
43.8385
12929.4
2147.35
463.566
106.818
19.4073
14007
4027.97
1001.43
233.311
42.129
11934.5
1939.35
419.199
97.1775
17.7356
13016.9
3753.24
937.866
219.598
39.7845
10271.8
1739.64
389.243
92.0098
16.9731
10495.8
3157.18
810.168
193.391
35.4836
10817.2
1798.53
396.978
93.0905
17.0925
11314.2
3392
861.642
203.699
37.1184
10011.5
1714.79
386.067
91.6137
16.9361
10140.3
3036.62
781.22
187.411
34.5367
9910.75
1692.41
381.168
90.5808
16.7439
10064.9
2996.85
770.058
185.378
34.1435
37116.6
54894.8
52989.4
34880.8
26340.8
32462.5
25267.2
32284.9
30640.6
51010.4
32824.7
52469.1
13.7475
18.0995
28.0746
46.2555
77.3984
129.171
17.2221
22.3364
33.9299
54.6475
88.8939
143.212
11.3414
10.2121
15.4817
14.4974
25.1375
24.6914
43.1261
44.3433
73.8655
77.7923
122.101
124.74
213.982
349.006
561.675
891.17
1304.73
1608.48
226.444
348.449
518.178
733.063
954.695
1101.5
36.2891
51.989
63.7074
71.3053
74.9959
47.673
68.049
83.0693
92.685
97.3108
73.7119
104.66
127.059
141.131
147.804
120.972
170.652
205.803
227.381
237.434
201.395
281.756
336.982
369.894
384.895
333.773
461.741
546.245
594.664
616.138
45.3791
64.8172
79.1808
88.3998
92.8437
58.7069
83.5032
101.566
112.993
118.442
88.8491
125.606
151.824
168.058
175.674
142.463
199.933
239.889
264
275.097
230.48
320.604
381.336
416.863
432.856
368.756
507.317
597.069
647.61
669.803
29.9797
43.0508
52.8847
59.3119
62.4527
27.0152
38.8439
47.7816
53.6486
56.5249
40.8378
58.4357
71.5167
79.9611
84.0488
38.2688
54.8255
67.1819
75.1906
79.0787
66.1076
94.1168
114.576
127.547
133.739
64.9793
92.6157
112.878
125.772
131.942
112.996
159.883
193.401
214.182
223.933
116.255
164.654
199.355
220.926
231.064
192.618
270.412
324.493
357.067
372.017
202.973
285.187
342.461
376.999
392.851
316.422
439.72
522.342
570.274
591.667
323.692
450.709
536.268
586.047
608.258
547.383
745.331
868.786
935.849
964.714
880.05
1172.21
1340.16
1425.41
1461.67
1387.41
1792.34
1998.48
2095.05
2139.43
2136.28
2644.37
2856.41
2949.2
3011.3
3011.87
3539.36
3694.81
3766.92
3872.93
3629.81
4132.97
4228.9
4282.81
4428.88
577.908
784.022
910.89
979.066
1008.29
879.236
1172.15
1340.95
1426.8
1463.19
1288.96
1681.87
1889.87
1989.46
2033.02
1792.44
2280.96
2513.38
2618.78
2671.16
2293.62
2846.86
3080.98
3184.25
3249.17
2618.04
3201.08
3428.68
3528.98
3604.6
13.8858
18.5665
29.0417
48.056
80.5925
134.575
17.3872
22.8814
35.0083
56.5249
91.9242
147.736
11.4646
10.3309
15.911
14.9239
26.0774
25.6753
45.01
46.4649
77.4805
82.0203
129.028
133.827
222.067
358.802
570.864
895.562
1303.78
1607.13
232.475
355.303
524.49
737.211
956.309
1101.77
36.6632
52.5472
64.4213
72.1328
75.8836
48.9375
69.9384
85.488
95.491
100.322
76.3341
108.587
132.097
146.985
154.092
125.865
178.006
215.27
238.409
249.295
210.109
294.926
354.022
389.822
406.372
348.602
484.342
575.706
629.303
653.576
45.8268
65.4879
80.0415
89.4003
93.9185
60.1862
85.7225
104.419
116.313
122.01
91.7824
130.021
157.515
174.695
182.818
147.587
207.683
249.926
275.747
287.763
238.793
333.274
397.859
436.302
453.872
381.267
526.608
622.488
677.735
702.502
30.3125
43.5462
53.5164
60.0428
63.2358
27.3358
39.3205
48.3885
54.3499
57.276
41.998
60.1641
73.7231
82.5152
86.7864
39.4204
56.5384
69.3652
77.715
81.7828
68.6505
97.912
119.429
133.172
139.773
67.6385
96.5778
117.937
131.627
138.219
118.102
167.525
203.199
225.56
236.15
121.998
173.232
210.332
233.656
244.721
202.45
285.2
343.539
379.262
395.891
214.466
302.464
364.701
402.905
420.711
335.304
468.212
559.135
613.222
637.906
348.314
487.524
583.406
640.732
666.946
569.85
780.191
914.924
990.683
1024.31
908.069
1217.37
1401.77
1500.16
1543.81
1415.6
1841.56
2069.44
2184.23
2239.26
2154.2
2683.41
2919.53
3033.86
3109.49
3016.47
3559.75
3734.39
3824.78
3943.47
3629.45
4138.46
4241.73
4302.9
4454.28
594.819
810.613
946.509
1021.78
1054.93
898.958
1204.23
1385.09
1480.7
1522.61
1308.07
1714.87
1937.24
2048.9
2099.49
1806.54
2308.12
2555
2673.08
2733.15
2300.83
2863.44
3108.51
3221.77
3293.02
2619.98
3206.43
3438.13
3542.26
3620.36
4409.05
2663.53
330.244
203.184
238.041
190.24
275.299
3786.15
3385.37
1965.43
2523.11
903.547
1387.95
669.177
788.963
592.005
3573.92
1603.99
795.487
673.992
994.217
816.161
558.635
486.057
413.343
336.736
559.024
482.728
3980.78
2137.97
2511.33
1369.33
1011.95
1646.24
565.443
360.341
653.924
8454.59
7560.89
6763.47
6617.76
9617.89
5544.82
5646.01
5421.92
5391.92
5810.08
839.844
1134.28
1314.61
1412.83
1456.47
523.864
722.457
852.721
927.361
960.715
614.723
849.621
1004.33
1092.87
1132.16
492.558
683.649
811.486
885.818
919.181
706.845
968.344
1135.74
1229.46
1270.75
7797.11
7689.53
7137.3
6982.04
9796.34
7125.33
7169.15
6784.45
6670.54
7243.32
4390.92
4944.81
5035.85
5077.16
5260.7
5631.43
6049.07
5869.31
5793.25
5861.1
2192.97
2766.67
3035.03
3154.05
3211.62
3235.1
3857.39
4068.53
4145.54
4207.13
1663.3
2170.08
2440.6
2570.11
2625.08
1943.63
2502.3
2783.15
2910.15
2963.59
1484.29
1960.59
2226.07
2356.63
2410.72
7333.71
7223.38
6720.59
6616.32
9428.01
3653.57
4226.87
4383.66
4468.84
4652.9
1947.53
2487.38
2754.83
2881.87
2946.36
1663.02
2148.68
2402.42
2528.53
2591.39
2376.8
2938.8
3184.69
3304.74
3395.78
1984.28
2509.67
2761.62
2885.73
2959.04
1386.99
1808.19
2036.37
2152.98
2209.55
1222.03
1621.85
1851.32
1970.39
2023.59
1052.55
1423.25
1649.01
1769.29
1820.73
861.789
1174.54
1370.82
1478.51
1525.34
1401.59
1852.32
2106.03
2234.04
2289.82
1216.37
1619.74
1853.79
1975.45
2029.03
7841.36
7293.29
6625.27
6507.72
9419.89
4600.29
4915.72
4863.97
4895.12
5212.7
5550.26
5936.92
5744.99
5757.28
6543.56
3158.28
3714.03
3890.03
3986.7
4130.42
2413.06
2969.88
3205.48
3322.92
3415.79
3731.84
4290.34
4431.46
4518.85
4726.15
1406.52
1838.4
2074.14
2194.42
2251.74
916.992
1239.39
1436.71
1543.55
1590.46
1614.21
2086.74
2334.3
2458.43
2520.76
3478.4
3425.36
3310.46
3033.93
2418
999.626
21736
21963.6
24104
25147
20733.1
21549.2
22619.8
21418.3
18445.3
25108.7
18937.5
25445.2
21643.5
19252.6
32355.1
20483.5
20533.2
22314.2
23040.2
19139.5
19960.6
21234.7
20358.4
18154.8
30342
18522.7
29647.9
21707.4
24036.9
34640.2
18904.8
18798.4
19919.4
20323.2
17717.7
19088.2
19281
19042.1
20554.5
25934.7
21271.2
25643.8
23369.3
26532.4
30262.1
17279
17199.2
17466.3
17662.1
16567.9
18182.6
17043
17149.8
18541.8
21836.6
19199.1
20932.5
20479.5
22730.3
24881.3
15678.3
15637.9
15616.4
15705.1
15624.4
17332.4
15364.2
15661.5
16914.9
16997.7
17583.3
15944
17938.2
17761.3
19250.2
14848.6
14867.9
14314.4
14359.2
14738.9
15974.9
14222
14422.4
15618.1
13780.5
16010.5
13186.5
15984.2
14494.9
16515.3
22469.6
21341.9
24377.6
25944.9
20215.9
19827.3
22231.5
20783.4
18864.4
12951.9
18700.4
13007.3
16342.7
14568
16871.6
20663.2
19833.4
21967.1
23027.9
19089
18918
20492
19274
16767.7
11849.7
16649.9
11942.4
14262.1
12392.1
14743.2
18149.5
17635.5
18932.3
19490.1
17156.8
16991
18131.5
17322.8
14947.5
10809.6
14613.6
10596.6
12767.1
10483.2
13525.3
15407.3
15094.6
16222.7
16513.4
14739.5
14498.2
15865.8
15193.9
12833.7
10006.1
12627.2
9819.23
11168.2
9720.55
12496
13576.1
13357.3
14419.2
14593.5
12919.5
12686.1
14252.7
13754.3
11548.2
9931.39
11394.7
9834.72
10357.4
9540.63
11928.3
12232.5
12042.6
13227.6
13357
11747.7
11773.4
13055.3
12769.2
10774.3
9852.06
10701
9828.24
9861.63
9556.47
11813.8
13347.6
7578.45
21718.4
14389.3
23842.8
17738.2
36817.1
46468.1
48694.7
60424.5
31800.3
27823.7
20134.9
16168.5
9903.5
6612.45
21985.6
21816.9
19230.8
22218.2
29603.7
25648.5
34938.3
27443.5
9182.75
6442.92
5159.11
3911.39
10940.3
8896.63
6813.76
5690.55
21342.4
21536.7
21119.4
16839
15785.1
12922.7
12742.4
14683.7
20426
20547.7
44080.7
45858.5
30328.1
31549.2
18503
15611.1
19464.6
13720.1
9082.16
9514.48
7852.33
12301.6
4107.56
5332.99
10863.1
16455.1
6611.4
8130.25
11664.4
21882.2
8240.03
14427.3
3069.46
8468.7
2566.31
6288.75
18879.9
23561.8
20116.8
23843.2
22719.6
22670.9
23774.8
22757.4
17651.4
24305.5
17587.9
23724.6
20104.3
23909.6
20262.6
23982.7
24361.6
22697.8
24480.8
22598.4
16505.8
24572.8
16056
24765.7
21619.3
26828.5
27290.5
40313.1
22947.1
31616.2
27068.3
44553.4
20498
23346.1
27388.1
38428.1
20335.7
21764.5
27729.6
38068.2
7609.76
10370.3
19788.2
36260.9
9280.44
10852.5
25131
40423.7
11063.8
11261.3
30889.6
43293.3
26518.1
26694.3
24082.5
24853.9
39588.4
26436.6
26327.2
24314.4
22243.9
46303
24287.8
25148.1
23824.1
25883.4
51445.6
2720.37
3335.48
6070.07
15373
3839.98
4491.88
8165.67
16606.4
5446.36
4631.64
10605.2
17963.8
25147
23115.8
23756.5
21587.5
22106.2
18503.5
17501.5
14621.7
13410.6
20061.4
23371.1
21167.1
24720.8
22932.8
22807.8
20266.4
20211
17497.9
14043.8
19594.4
25129.3
27774.5
25249.1
28774.6
23271.4
23430.1
22951.5
24006.4
24097.8
24248.5
23857.6
23425.1
25134.9
29027.9
25123.2
29125.6
22409.3
24515.1
22317.8
24570.9
24183
24184.3
24252.3
24235.1
21269.3
20105
14035.5
16070.6
21218.9
19698.2
13895.9
16474.2
21491.8
19964.8
14313.6
15988.5
21583.6
19750.1
14757.4
15948.7
2001.96
1145.91
690.712
1060.96
575.722
506.045
2897.91
1377.75
897.363
1997.35
1381.48
1028.18
3023.3
1945.67
1709.94
3385.69
2362.35
1914.91
19701.4
15350.3
12688.9
18906.8
15249.4
12847.5
14107
11334.3
9785.05
10449.4
7588.91
6300.27
5248.57
3163.21
2365.06
18361.3
14569.9
11972.9
19881.9
15477.8
12600.9
15602.1
11223.6
8885.24
10768.2
7061.01
5510.98
5514.29
3083.1
2152.29
28909.8
27582.6
32123.5
28091.3
33334.4
28212.1
41182.5
30340.6
21323.4
20868.7
21218.6
19114.6
24258.4
21948.9
24133.5
19882.2
23853.5
23212
21916.9
22942.7
27888.6
25614.4
30049.3
30790
33500
34984.2
24441.3
25648.4
21936.3
21446.3
25940.7
26807.1
15686.8
8202.09
14851.7
9099.53
16011.3
8257.35
14893.6
9018.09
15927.9
8277.69
15027.1
9421.96
14751.4
9868.59
14997.8
9736.31
21319.6
17521.9
21659.4
17767.6
24140.6
21234.1
24937.3
21350.9
20677.6
14216.3
21129.7
13817.5
22471.9
17837.2
22908.6
17669.3
25982.3
21378.2
26184.9
21176.7
20747.4
14362.9
20792.9
14274.1
12931.9
8232.32
10781.3
6858.01
11795.6
7303.31
10217.4
6378.4
13391.4
8769.65
11017.1
7072.33
13449.1
9050.66
10975.5
7098.28
2354.54
1177.46
4296.67
2399.55
2492.96
1418.89
4556.67
2809.33
3019.94
2096.27
5004.9
3565.13
11948.4
19462.1
8415.97
7961.03
5701.59
18623.1
12285.9
6831.4
6838.4
4635.16
19977.3
15065.8
11520.3
8669.28
5532.16
588.035
353.745
1453.49
1055.64
796.732
452.501
1898.55
1423.53
1343.82
843.423
2608.29
1991.38
18192.4
16251.4
11572.6
10045.6
7050.37
6289.69
5792.23
4563.36
3827.55
2912.1
17504.4
14722.6
12830.3
10156.9
9469.4
7377.45
6931.07
5357.29
4700.08
4005.87
13632.4
9863.75
13980.7
9940.94
17312.2
13384
17609.5
13646.1
11027.5
7862.8
10513
7645.85
14145.2
9958.71
14085.5
9965.94
17712.5
14141.4
17602.7
14161.9
11335.8
7867.8
11312.9
7957.86
8177.08
5958.96
5536.09
4975.7
7760.86
5668.7
5267.78
4616.4
8573.39
6137.53
5690.62
5256.67
8748.33
6132.73
5900.93
5318.83
706.821
564.339
434.305
3092.49
1483.24
1120.32
706.861
641.092
528.999
3479.63
1819.1
1426.71
1048.57
1060.01
1000.39
4035.95
2364.34
1937.08
13423.6
10801.1
9234.59
8294.29
6845.4
6043.52
5444.76
4555.48
4117.29
4128.01
3411.02
3016.37
4839.19
3033.88
2496.47
11819.4
9191.04
7620.87
7858.37
6072.65
5117.5
5800.45
4449.58
3768.19
4910.22
3662.3
3017.06
6114.55
3480.96
2785.48
4106.69
2117.79
1108.85
568.259
4615.77
2303.02
1172.92
589.032
4127.08
2119.8
1112.57
570.774
4708.65
2354.9
1209.37
609.34
4126.71
2106.46
1142.77
593.715
4809.25
2387.91
1269.67
647.01
5161.86
2516.62
1256.23
624.727
5268.4
2590.72
1266.84
626.888
4373.38
2244.01
1205.22
616.719
3664.57
1995.57
1113.42
580.842
3865.75
2042.22
1138.69
597.151
3404.63
1888.84
1073.37
565.704
4703.94
2389.26
1240.68
624.063
3814.47
2069.05
1134.62
589.76
4868.89
2478.09
1266.39
636.863
3871.7
2116.4
1155.46
603.245
3112.45
1815.27
1017.84
541.568
2151.31
1473.28
907.417
503.12
3128.71
1812.17
1020.94
543.3
2242.97
1498.01
915.364
506.785
3218.1
1822.38
1042.27
556.677
2500.73
1570.93
942.937
518.989
3208.03
1793.99
1038.08
571.625
2732.24
1627.7
982.986
530.91
3053.62
1759.69
1026.27
556.943
1336.53
1215.97
734.852
217.09
590.362
1082.68
671.048
212.009
1491.54
1268.22
755.879
228.578
748.546
1138.46
689.006
217.409
1795.69
1362.86
783.95
229.664
1037.08
1234.46
713.643
221.21
2192.29
1482.02
834.475
249.937
1384.04
1348.61
751.733
232.374
2501.67
1599.34
898.091
286.279
1571.94
1447.57
788.325
242.566
2735.4
1736.48
925.49
278.87
1592.6
1576.5
856.209
260.744
2644.82
1678.54
907.88
277.56
1509.47
1519.57
822.401
250.649
2779.62
1772.85
927.268
263.604
1609.09
1618.36
872.469
262.198
2832.82
1804.24
943.816
266.944
1681.32
1652.19
890.209
266.939
309.872
167.305
83.9598
37.7502
10.6533
309.943
167.454
84.1105
37.8245
10.6738
314.423
169.453
84.7354
38.0218
10.7201
317.514
170.17
85.1057
38.1823
10.763
324.696
172.191
85.6452
38.3381
10.7982
327.642
172.936
86.1432
38.5641
10.8593
329.119
175.753
87.431
39.0699
10.99
335.214
179.299
89.0623
39.7267
11.1621
334.57
175.367
86.8847
38.8013
10.9157
350.398
178.457
87.6907
39.0467
10.9733
335.465
174.36
86.3017
38.556
10.8511
349.615
177.15
87.066
38.7993
10.9093
336.436
177.767
88.01
39.2486
11.0319
356.598
180.749
88.6856
39.4405
11.0758
344.316
181.267
89.5343
39.8559
11.1908
364.851
183.884
89.9892
39.9568
11.211
313.725
167.581
83.8614
37.6841
10.6342
322.883
168.113
83.8216
37.6445
10.6225
318.302
169.317
84.4643
37.8902
10.6843
326.898
169.496
84.2989
37.8069
10.6618
327.549
172.029
85.3408
38.1895
10.7576
335.253
171.898
85.0905
38.078
10.7281
339.66
174.819
86.1838
38.4741
10.8272
345.014
174.423
85.9501
38.3804
10.803
350.334
176.244
86.6498
38.6383
10.868
15559.6
24372.8
16023.8
24442.2
16496.4
24261.6
16494.6
23771.1
15201.9
22088.8
13318
15167.5
13579.8
16376.1
13270.7
14811.7
13470.4
14908.4
14147.1
2439.25
530.216
121.568
21.9663
15774.3
4544.16
1121.54
259.817
46.9069
14085.8
2406.92
521.499
119.37
21.5378
15671.5
4477.36
1104.04
255.067
45.729
13845
2342.22
505.411
115.599
20.8636
15366.4
4367.23
1075.42
248.35
44.559
13272.4
2206.87
474.295
108.682
19.6629
14727.1
4168.6
1027.19
237.705
42.7228
12159.5
1975.75
425.708
98.3033
17.8877
13537.3
3853.55
956.206
222.706
40.1978
10242.6
1738.31
389.428
92.0695
16.9792
10482.5
3161.6
811.904
193.753
35.5284
10847.8
1808.51
399.344
93.5395
17.1528
11428.2
3430.63
870.123