/*--------------------------------*- C++ -*----------------------------------*\
  =========                 |
  \\      /  F ield         | OpenFOAM: The Open Source CFD Toolbox
   \\    /   O peration     | Website:  https://openfoam.org
    \\  /    A nd           | Version:  11
     \\/     M anipulation  |
\*---------------------------------------------------------------------------*/
FoamFile
{
    format      ascii;
    class       volScalarField::Internal;
    location    "287";
    object      tmp<kEpsilon:G>;
}
// * * * * * * * * * * * * * * * * * * * * * * * * * * * * * * * * * * * * * //

dimensions      [0 2 -3 0 0 0 0];

value           nonuniform List<scalar> 
12225
(
0
0
0
0
0
0
0
0
0
0
0
0
0
0
0
0
0
0
947.465
499.321
262.327
277.579
379.75
495.268
604.993
715.085
802.506
888.343
950.042
1008.58
1048.48
1084.9
1112.54
1130.02
1167.25
1133.98
85.4726
123.101
55.5191
17.2368
5.18726
4.39861
8.80113
16.6823
26.6125
38.3709
50.8925
64.0617
77.5098
90.3882
103.973
115.382
129.571
136.288
5.03699
1.74502
0.641
0.7022
0.465244
0.185305
0.0269641
0.189075
0.790452
1.8796
3.44251
5.41316
7.82177
10.3959
13.4364
16.2984
19.7514
22.5546
0.224394
0.131567
0.14785
0.314048
0.426068
0.406414
0.28919
0.153262
0.0568458
0.0250778
0.0743932
0.212048
0.446659
0.761048
1.17994
1.64106
2.2028
2.75242
0.177088
0.188683
0.264839
0.320377
0.322841
0.317701
0.289929
0.238919
0.182252
0.127147
0.0802343
0.0456476
0.0279486
0.0290332
0.0505417
0.0908314
0.14722
0.216386
0.126539
0.211606
0.231032
0.213016
0.212263
0.230717
0.238741
0.227677
0.208382
0.184782
0.159427
0.132995
0.108674
0.0875262
0.0711215
0.0606027
0.0556332
0.0548753
0.0973902
0.148868
0.159695
0.157143
0.16765
0.188233
0.200755
0.200683
0.195416
0.187767
0.178401
0.167067
0.155545
0.144365
0.134925
0.127801
0.124416
0.121739
0.0740366
0.104543
0.12207
0.130436
0.142062
0.158013
0.169391
0.173063
0.173337
0.172505
0.170736
0.167948
0.164868
0.162099
0.160469
0.160301
0.162791
0.165078
0.056083
0.0774458
0.0972185
0.108836
0.119546
0.132606
0.143232
0.148728
0.151468
0.153453
0.15502
0.15609
0.157201
0.158717
0.161263
0.164779
0.170229
0.174997
0.0423423
0.0583423
0.0770717
0.089809
0.100363
0.111894
0.121817
0.128042
0.13189
0.135
0.137868
0.14051
0.143286
0.146465
0.150448
0.155055
0.160878
0.165897
0.0324194
0.0451136
0.0621444
0.0753227
0.0858634
0.0963552
0.105541
0.11191
0.1162
0.119696
0.122944
0.12603
0.129206
0.132674
0.136679
0.141017
0.14606
0.150234
0.0245373
0.0347383
0.0499759
0.063206
0.0737594
0.0835386
0.0921255
0.0984812
0.102985
0.106609
0.109887
0.112966
0.116023
0.119208
0.122664
0.126211
0.130085
0.133133
0.0175646
0.0257167
0.0389808
0.0516838
0.0621174
0.071343
0.0793816
0.0856229
0.0902255
0.0938623
0.0970123
0.0998627
0.102547
0.10517
0.10781
0.110328
0.112896
0.114721
0.0116485
0.0182357
0.029631
0.0414361
0.0515231
0.0602399
0.0677584
0.0737769
0.0783434
0.0818909
0.0848133
0.0873115
0.0894981
0.0914491
0.093218
0.0947133
0.0960877
0.0968363
0.0068877
0.0122948
0.0220378
0.0327709
0.0423264
0.0505472
0.0575715
0.0632734
0.067666
0.0710207
0.0736432
0.0757273
0.077383
0.0786789
0.0796684
0.0803122
0.0807516
0.0807104
0.00336682
0.00792293
0.0163358
0.0260186
0.0349456
0.0426635
0.0492076
0.0545249
0.0586259
0.0616913
0.063958
0.0656067
0.0667535
0.067476
0.0678389
0.0678503
0.0676306
0.0670822
0.0011974
0.00520292
0.0126891
0.0215173
0.029814
0.0369975
0.0430319
0.0478905
0.051589
0.0542676
0.0561255
0.0573351
0.0580197
0.0582702
0.0581623
0.057741
0.057093
0.0562546
0.000671935
0.00446468
0.0115885
0.0200115
0.0278772
0.0345892
0.0401275
0.0444865
0.047688
0.0498728
0.0512452
0.0519858
0.0522268
0.0520692
0.0515964
0.0508793
0.0499613
0.0489888
0.00204571
0.00608064
0.013658
0.0223476
0.0300889
0.0364673
0.0416294
0.0455666
0.0482745
0.0499309
0.0507945
0.0510712
0.0508978
0.0503793
0.0496012
0.048643
0.0475198
0.0464179
0.00472965
0.00942403
0.0181244
0.0274465
0.0350581
0.0410431
0.045849
0.0494023
0.0516384
0.0528041
0.0532263
0.0531183
0.0526045
0.0517936
0.0507766
0.0496391
0.0483753
0.0471821
0.00871705
0.0148697
0.0252546
0.0351398
0.0425974
0.0483023
0.0527373
0.055671
0.0571538
0.0576739
0.0576294
0.0571697
0.0563619
0.0553087
0.0541003
0.05282
0.0514394
0.0501659
0.0139825
0.0239411
0.0361876
0.0443425
0.0507178
0.0569903
0.0620693
0.0646569
0.0651662
0.0647563
0.0640007
0.0629662
0.0616604
0.0601939
0.0586396
0.0570705
0.055423
0.0538788
0.0214652
0.0423934
0.0593328
0.0604455
0.0596572
0.0636477
0.0695361
0.0733231
0.0745411
0.0745092
0.0737386
0.0722299
0.070062
0.0675103
0.0647105
0.0618197
0.0587724
0.0558755
0.0433472
0.0760723
0.0937225
0.104719
0.0971676
0.0901397
0.0875797
0.0862803
0.0847946
0.0829878
0.080091
0.0756555
0.0698485
0.0633083
0.0564464
0.0497462
0.0433729
0.037769
0.0805404
0.213197
0.0680964
0.0786745
0.167341
0.214728
0.214084
0.189286
0.158187
0.127609
0.0985208
0.0722045
0.0503243
0.0345949
0.0260848
0.0255725
0.0331666
0.0487541
0.659996
0.124867
0.31599
0.505946
0.37341
0.295749
0.229579
0.141704
0.0605637
0.0116302
0.0105537
0.0681142
0.189057
0.374736
0.620215
0.923563
1.27085
1.66007
31.8775
71.0678
43.2474
18.2727
7.06868
2.67218
1.11397
1.00734
1.81644
3.28493
5.25749
7.63432
10.2755
13.157
16.1291
19.2247
22.2419
25.2874
455.413
257.653
100.987
70.5615
91.6372
128.079
168.032
205.873
241.274
273.953
303.064
329.743
353.064
374.479
393.024
410.501
425.897
440.972
0
0
0
0
0
0
0
0
0
0
0
0
0
0
0
0
0
0
0
0
0
0
0
0
0
0
0
0
0
0
0
0
0
0
0
0
0
0
0
0
0
0
0
0
0
0
0
0
0
8.56932
9.23104
9.90235
10.5607
11.282
11.9294
12.598
13.33
13.9765
14.4446
14.8434
15.5892
17.2304
18.41
19.9939
21.5635
23.3021
25.099
27.002
28.9837
31.0573
33.2159
35.4637
37.7992
40.2244
42.7389
45.3438
48.0391
50.8253
53.7018
56.6689
59.7254
62.871
66.1039
69.4232
72.8263
76.3115
79.8756
83.5162
87.2291
91.0111
94.8572
98.7636
102.724
106.734
110.787
114.878
118.998
123.141
127.299
131.466
135.632
139.788
143.927
148.038
152.112
156.138
160.106
164.005
167.823
171.547
175.162
178.653
182.004
185.201
188.229
191.08
193.763
196.279
198.631
200.811
202.815
204.634
206.262
207.693
208.919
209.937
210.74
211.324
211.685
211.819
211.723
211.394
210.831
210.032
208.996
207.724
206.215
204.472
202.496
200.289
197.855
195.196
192.317
189.223
185.918
182.408
178.711
174.828
170.75
166.489
162.058
157.485
152.773
147.911
142.923
137.816
132.602
127.291
121.894
116.422
110.885
105.294
99.6593
93.9919
88.3019
82.5995
76.8949
71.1978
65.5177
59.8639
54.2452
48.6703
43.1477
37.6857
32.2925
26.9772
21.7505
16.628
11.6413
6.89274
3.09408
4.32997
8.56302
13.124
17.7245
22.3095
26.8624
31.3756
35.8445
40.2638
44.6265
48.9197
53.1241
57.1839
61.0596
64.3342
67.3549
64.4795
0
0.00280571
0.00558416
0.0180769
0.0503241
0.104695
0.18106
0.276324
0.386701
0.508564
0.639632
0.779332
0.928167
1.08682
1.25596
1.43609
1.62764
1.83102
2.04702
2.2768
2.52218
2.78534
3.06884
3.37477
3.70489
4.06146
4.4404
4.81669
5.17304
5.5167
5.82921
6.0772
6.28629
6.46915
6.60098
6.72741
6.71776
6.39355
5.62669
5.10233
4.86123
4.02952
4.08095
5.09694
5.09145
4.92198
4.79127
4.67043
4.54479
4.40876
4.26512
4.11612
3.96404
3.81044
3.65664
3.50364
3.35232
3.20349
3.05792
2.91637
2.77962
2.64851
2.52393
2.40681
2.29812
2.19892
2.11029
2.03338
1.96936
1.91944
1.88485
1.86684
1.86663
1.88549
1.92461
1.98516
2.06825
2.17495
2.30625
2.46307
2.6462
2.85635
3.09407
3.35982
3.65384
3.97621
4.32668
4.70473
5.10953
5.53969
5.99338
6.46762
6.95778
7.45719
7.95777
8.45188
8.93305
9.39113
9.80834
10.2319
10.6535
11.0846
11.5261
11.9789
12.4428
12.9173
13.4016
13.8949
14.3965
14.9055
15.4209
15.9419
16.4673
16.9962
17.5276
18.0603
18.5933
19.1255
19.6555
20.1822
20.7049
21.2226
21.7343
22.239
22.7353
23.2219
23.698
24.1626
24.6146
25.0541
25.4816
25.8926
26.285
26.6621
27.0268
27.3739
27.7033
28.0149
28.3085
28.5839
28.8414
29.0809
29.3027
29.5069
29.6937
29.8634
30.0162
30.1526
30.2729
30.3776
30.4672
30.5424
30.6035
30.6514
30.6865
30.7097
30.7219
30.7248
30.7195
30.7067
30.686
30.6638
30.6543
30.637
30.5858
30.5156
30.4491
30.39
30.337
30.2882
30.2421
30.1979
30.1545
30.1145
30.0785
30.0988
30.1685
31.025
32.4377
41.2558
0
0.0285916
0.0972477
0.155076
0.217691
0.294241
0.393691
0.519418
0.668956
0.836619
1.01667
1.20509
1.39992
1.60071
1.8079
2.0221
2.24392
2.47379
2.71208
2.95901
3.21473
3.47913
3.75144
4.02981
4.31061
4.58811
4.85343
5.09705
5.31044
5.48952
5.62327
5.70757
5.75189
5.77263
5.77625
5.76385
5.70852
5.57224
5.38447
5.24532
5.18429
5.12418
5.12987
5.18777
5.21581
5.22332
5.27675
5.38269
5.5355
5.72459
5.94283
6.18527
6.4489
6.73162
7.03198
7.34887
7.68142
8.02886
8.39058
8.76597
9.15451
9.55571
9.9691
10.3943
10.8308
11.2783
11.7365
12.2049
12.6833
13.1715
13.6691
14.176
14.692
15.2169
15.7506
16.2929
16.8438
17.4031
17.9708
18.5467
19.1307
19.7227
20.3224
20.9296
21.544
22.1651
22.7923
23.4246
24.0611
24.7008
25.3433
25.9884
26.6366
27.2898
27.9528
28.6354
29.3522
30.1213
30.9718
31.8371
32.7183
33.609
34.507
35.4109
36.3194
37.2307
38.143
39.0542
39.9626
40.866
41.7625
42.6498
43.5261
44.3889
45.2364
46.0664
46.8769
47.6655
48.4299
49.1679
49.8782
50.5592
51.2097
51.8275
52.4105
52.9565
53.4639
53.9314
54.3583
54.7443
55.0896
55.3899
55.6401
55.847
56.0132
56.1339
56.2087
56.2376
56.221
56.1596
56.0542
55.9059
55.7156
55.4844
55.2135
54.9041
54.5577
54.1757
53.7598
53.3118
52.8334
52.3265
51.7931
51.2352
50.6552
50.0558
49.4387
48.8058
48.1601
47.5041
46.8365
46.1564
45.4608
44.7598
44.0758
43.4066
42.7468
42.0986
41.4625
40.8375
40.223
39.6191
39.0272
38.4552
37.9178
37.4956
37.2754
38.0345
40.1697
46.8781
0
0.130998
0.286868
0.399663
0.488184
0.57166
0.66887
0.789793
0.937124
1.10853
1.29912
1.50366
1.71801
1.93944
2.16645
2.39825
2.63441
2.87452
3.11802
3.36407
3.61145
3.85822
4.10162
4.33778
4.56152
4.76668
4.9467
5.09573
5.21078
5.29347
5.34626
5.3718
5.38452
5.40487
5.43838
5.48135
5.51553
5.53543
5.5565
5.63387
5.77351
5.94846
6.26364
6.73078
7.16577
7.5436
7.90147
8.26713
8.65413
9.06621
9.50331
9.96399
10.4467
10.9499
11.4725
12.0133
12.5716
13.1466
13.7377
14.3444
14.9663
15.6031
16.2544
16.92
17.5998
18.2937
19.0016
19.7235
20.4596
21.2099
21.9746
22.7539
23.548
24.3572
25.1817
26.022
26.8783
27.7508
28.6398
29.5456
30.4684
31.4082
32.3652
33.3395
34.3309
35.3393
36.3644
37.4059
38.4635
39.5372
40.6276
41.736
42.8645
44.0168
45.1992
46.4191
47.6782
48.9695
50.2827
51.6083
52.948
54.2973
55.6522
57.0099
58.3675
59.7218
61.0699
62.4085
63.7347
65.0452
66.337
67.6068
68.8516
70.0681
71.2532
72.404
73.5174
74.5901
75.6188
76.6005
77.5333
78.4152
79.2444
80.018
80.7332
81.3873
81.9777
82.5027
82.9617
83.3552
83.6844
83.9391
84.1183
84.2317
84.2773
84.2532
84.1587
83.994
83.7598
83.4577
83.0891
82.656
82.16
81.6031
80.9876
80.3156
79.5895
78.8121
77.9861
77.1144
76.2001
75.2464
74.2568
73.2345
72.1827
71.1041
70.0016
68.877
67.7341
66.5783
65.4154
64.248
63.0726
61.8825
60.6896
59.5024
58.3249
57.1648
56.0263
54.9116
53.8228
52.7633
51.7409
50.7746
49.9017
49.2448
48.9609
49.8773
52.4078
57.7637
0
0.279845
0.526491
0.707885
0.829035
0.920404
1.01217
1.11958
1.24941
1.40312
1.57849
1.77134
1.97717
2.19203
2.41286
2.63732
2.86354
3.08982
3.31453
3.53581
3.75158
3.95948
4.15687
4.34093
4.50909
4.65959
4.79176
4.90658
5.0069
5.09754
5.18406
5.27238
5.37096
5.48934
5.63059
5.79174
5.96695
6.15489
6.36394
6.61089
6.90798
7.25905
7.69431
8.21324
8.76172
9.31129
9.86045
10.4179
10.9919
11.5876
12.2074
12.852
13.5216
14.2157
14.9336
15.6751
16.4397
17.227
18.0367
18.8687
19.7228
20.599
21.4974
22.4181
23.3614
24.3275
25.3169
26.3298
27.3669
28.4286
29.5155
30.6281
31.7671
32.9329
34.1263
35.3477
36.5976
37.8765
39.1849
40.5229
41.8909
43.2889
44.717
46.1752
47.6633
49.1811
50.7283
52.3043
53.909
55.5423
57.2046
58.8967
60.6197
62.3753
64.1655
65.9909
67.8471
69.7224
71.6079
73.5022
75.4053
77.3135
79.2223
81.1273
83.0241
84.908
86.7746
88.6192
90.4375
92.2249
93.9771
95.6898
97.3583
98.9786
100.546
102.058
103.509
104.895
106.211
107.456
108.625
109.716
110.728
111.657
112.499
113.251
113.911
114.476
114.945
115.323
115.602
115.781
115.855
115.839
115.725
115.514
115.207
114.804
114.307
113.717
113.038
112.272
111.421
110.491
109.482
108.399
107.246
106.026
104.743
103.403
102.008
100.564
99.0747
97.5436
95.9746
94.3716
92.74
91.086
89.4141
87.7294
86.0383
84.3466
82.6554
80.9585
79.2581
77.56
75.8729
74.2088
72.5759
70.9807
69.43
67.9334
66.5076
65.1874
64.0346
63.2088
62.9137
63.9539
66.5803
70.7795
0
0.438138
0.760485
1.01459
1.17562
1.28066
1.3699
1.46298
1.57012
1.69609
1.84148
2.00405
2.18015
2.36582
2.5574
2.75165
2.9458
3.13742
3.32431
3.50447
3.67618
3.83803
3.98912
4.12933
4.25946
4.38152
4.49856
4.6145
4.73377
4.8611
5.00087
5.15709
5.33406
5.53586
5.7648
6.02117
6.30413
6.61393
6.95401
7.33204
7.75631
8.23393
8.77246
9.37095
10.0134
10.6845
11.3772
12.0909
12.8282
13.5916
14.3832
15.2043
16.0556
16.9375
17.8503
18.794
19.7688
20.7747
21.8119
22.8808
23.9816
25.115
26.2814
27.4816
28.7164
29.9865
31.2928
32.6364
34.0181
35.439
36.9001
38.4023
39.9466
41.534
43.1653
44.8413
46.5625
48.3297
50.1431
52.003
53.9097
55.8629
57.8625
59.9081
61.9991
64.1349
66.3146
68.5373
70.8018
73.1073
75.4531
77.8382
80.2619
82.7228
85.2189
87.7461
90.2968
92.8606
95.4302
98.0031
100.577
103.149
105.712
108.261
110.79
113.292
115.761
118.191
120.576
122.911
125.188
127.403
129.55
131.623
133.617
135.526
137.346
139.071
140.696
142.217
143.632
144.938
146.13
147.207
148.163
148.997
149.704
150.283
150.734
151.059
151.251
151.309
151.235
151.039
150.715
150.264
149.687
148.987
148.165
147.226
146.172
145.008
143.739
142.367
140.898
139.338
137.69
135.96
134.154
132.277
130.334
128.33
126.271
124.162
122.009
119.821
117.601
115.359
113.1
110.83
108.556
106.284
104.019
101.759
99.5045
97.2581
95.0292
92.8314
90.6767
88.5763
86.5423
84.592
82.7526
81.0741
79.6402
78.6339
78.2716
79.2824
81.6875
84.856
0
0.584565
0.953962
1.26999
1.47034
1.59233
1.68236
1.76317
1.84757
1.94298
2.05251
2.17598
2.3112
2.45507
2.60425
2.75561
2.9064
3.0543
3.19747
3.33457
3.46487
3.5884
3.70597
3.81942
3.93151
4.04589
4.16678
4.29862
4.44568
4.61183
4.80028
5.0137
5.25446
5.5247
5.82615
6.16018
6.52792
6.93072
7.37109
7.8531
8.38162
8.96101
9.59446
10.2814
11.0165
11.7928
12.6053
13.452
14.3326
15.2481
16.1995
17.1879
18.2144
19.2798
20.3849
21.5304
22.7171
23.9458
25.2173
26.5326
27.8929
29.2993
30.7531
32.2557
33.8087
35.4135
37.0716
38.7848
40.5546
42.3826
44.2702
46.219
48.2303
50.3054
52.4452
54.6508
56.923
59.262
61.6684
64.1421
66.6829
69.2903
71.9636
74.7016
77.5032
80.3667
83.2903
86.272
89.3093
92.3999
95.541
98.7297
101.963
105.236
108.545
111.881
115.236
118.6
121.965
125.326
128.679
132.017
135.335
138.624
141.876
145.084
148.239
151.333
154.359
157.309
160.176
162.951
165.629
168.201
170.662
173.006
175.225
177.313
179.265
181.077
182.746
184.267
185.638
186.853
187.911
188.808
189.54
190.106
190.509
190.742
190.807
190.7
190.433
190.007
189.419
188.671
187.766
186.708
185.499
184.145
182.65
181.021
179.263
177.382
175.383
173.273
171.058
168.746
166.341
163.852
161.285
158.648
155.948
153.194
150.392
147.551
144.68
141.785
138.876
135.958
133.039
130.126
127.225
124.338
121.469
118.62
115.8
113.022
110.303
107.657
105.103
102.665
100.382
98.3146
96.5629
95.3176
94.7815
95.5885
97.5156
99.7087
0
0.704599
1.08565
1.4426
1.67331
1.81038
1.90219
1.97275
2.03648
2.1027
2.1765
2.25962
2.35158
2.45061
2.55444
2.66074
2.76746
2.87302
2.97643
3.07732
3.17598
3.27349
3.3717
3.4733
3.58162
3.70049
3.83398
3.98617
4.16078
4.36108
4.5897
4.84878
5.14012
5.46533
5.82596
6.22357
6.65976
7.13632
7.65546
8.21995
8.83295
9.49735
10.215
10.9862
11.8091
12.6811
13.5999
14.5639
15.5728
16.6268
17.7269
18.8739
20.0692
21.3142
22.6101
23.9585
25.3608
26.8187
28.3338
29.9082
31.5437
33.2424
35.0067
36.8387
38.7409
40.7155
42.7651
44.892
47.0985
49.3868
51.7589
54.2169
56.7624
59.3969
62.1218
64.9379
67.846
70.8464
73.939
77.1234
80.3988
83.7639
87.2173
90.7567
94.3798
98.0838
101.865
105.721
109.646
113.636
117.687
121.793
125.948
130.145
134.376
138.631
142.902
147.175
151.442
155.695
159.927
164.131
168.296
172.414
176.475
180.468
184.384
188.212
191.943
195.568
199.077
202.462
205.713
208.822
211.783
214.586
217.225
219.691
221.98
224.087
226.008
227.738
229.274
230.612
231.75
232.683
233.409
233.929
234.242
234.34
234.231
233.911
233.396
232.683
231.772
230.665
229.368
227.885
226.221
224.382
222.376
220.21
217.889
215.423
212.817
210.08
207.22
204.246
201.165
197.989
194.725
191.382
187.971
184.501
180.981
177.421
173.83
170.218
166.593
162.963
159.337
155.721
152.124
148.552
145.01
141.502
138.038
134.633
131.303
128.069
124.954
121.99
119.223
116.725
114.602
113.042
112.215
112.664
113.935
115.21
0
0.794778
1.14944
1.521
1.76748
1.9132
2.00477
2.06581
2.11134
2.15176
2.19364
2.2403
2.29285
2.35101
2.41389
2.48036
2.54947
2.62069
2.69379
2.76912
2.84762
2.93089
3.02112
3.12097
3.23366
3.36272
3.51175
3.68427
3.88357
4.11252
4.37359
4.66883
5.00002
5.36877
5.77669
6.22545
6.7168
7.25268
7.83518
8.46666
9.14957
9.88586
10.6775
11.5254
12.4298
13.3904
14.4065
15.4781
16.6053
17.789
19.0301
20.3302
21.6911
23.1148
24.6035
26.1595
27.7852
29.4834
31.2568
33.1083
35.0411
37.0583
39.1633
41.3595
43.6503
46.0389
48.5289
51.1232
53.8251
56.6374
59.5626
62.6032
65.7611
69.038
72.4352
75.9535
79.5933
83.3545
87.2363
91.2376
95.3566
99.5912
103.938
108.394
112.956
117.618
122.375
127.222
132.152
137.158
142.234
147.37
152.558
157.788
163.05
168.332
173.622
178.906
184.172
189.412
194.614
199.768
204.862
209.885
214.825
219.669
224.406
229.023
233.509
237.852
242.042
246.068
249.92
253.588
257.063
260.336
263.399
266.243
268.863
271.254
273.41
275.329
277.005
278.435
279.617
280.548
281.225
281.653
281.823
281.735
281.394
280.803
279.978
278.915
277.613
276.078
274.317
272.335
270.141
267.742
265.147
262.364
259.402
256.269
252.976
249.532
245.948
242.236
238.404
234.466
230.431
226.312
222.119
217.864
213.557
209.21
204.834
200.439
196.035
191.631
187.236
182.859
178.508
174.195
169.926
165.707
161.55
157.469
153.485
149.619
145.902
142.37
139.077
136.099
133.545
131.588
130.36
130.32
130.822
131.234
0
0.856907
1.14994
1.51011
1.75533
1.90069
1.98759
2.03829
2.06752
2.08612
2.10148
2.11814
2.13864
2.16421
2.19514
2.23137
2.27285
2.31958
2.37238
2.43216
2.50031
2.57861
2.66919
2.7745
2.89721
3.04023
3.20659
3.39928
3.62118
3.87495
4.163
4.48748
4.85037
5.25349
5.69868
6.18779
6.72277
7.30572
7.93889
8.6247
9.3656
10.164
11.0218
11.9408
12.9218
13.9662
15.0752
16.2499
17.4917
18.8022
20.1834
21.6378
23.1681
24.7775
26.469
28.2463
30.1129
32.0727
34.1298
36.2884
38.5529
40.928
43.4181
46.0279
48.7619
51.6244
54.6199
57.7522
61.0252
64.4423
68.0064
71.7202
75.5858
79.6046
83.7778
88.1056
92.5879
97.2235
102.011
106.948
112.031
117.256
122.619
128.115
133.737
139.479
145.332
151.29
157.342
163.48
169.692
175.968
182.295
188.662
195.055
201.459
207.859
214.241
220.591
226.894
233.138
239.309
245.394
251.378
257.246
262.985
268.581
274.019
279.285
284.368
289.253
293.93
298.386
302.611
306.593
310.324
313.793
316.993
319.917
322.559
324.916
326.982
328.754
330.228
331.402
332.275
332.847
333.117
333.081
332.74
332.099
331.168
329.959
328.468
326.698
324.656
322.351
319.79
316.985
313.943
310.676
307.194
303.508
299.629
295.569
291.341
286.957
282.431
277.774
273.001
268.124
263.157
258.113
253.005
247.846
242.648
237.423
232.183
226.94
221.703
216.483
211.29
206.134
201.029
195.983
191.005
186.108
181.307
176.626
172.089
167.728
163.588
159.724
156.215
153.167
150.733
149.005
148.378
148.043
147.645
0
0.896075
1.09896
1.42524
1.65344
1.78851
1.865
1.90316
1.91696
1.91722
1.91198
1.90635
1.90372
1.90595
1.9147
1.93096
1.95557
1.98943
2.03343
2.08868
2.15654
2.23857
2.33656
2.45252
2.58867
2.74741
2.93125
3.14285
3.38484
3.65976
3.9701
4.31821
4.70633
5.13668
5.61143
6.13282
6.70313
7.3248
8.0004
8.73264
9.52426
10.3781
11.2969
12.283
13.3396
14.469
15.6733
16.9548
18.3163
19.761
21.2923
22.9143
24.6309
26.4468
28.3664
30.3946
32.5364
34.7973
37.1827
39.6986
42.3508
45.1453
48.088
51.1847
54.4411
57.8627
61.4544
65.221
69.1666
73.295
77.6093
82.1119
86.8047
91.6885
96.7637
102.03
107.485
113.127
118.953
124.959
131.139
137.488
143.999
150.664
157.474
164.419
171.491
178.676
185.964
193.341
200.794
208.308
215.868
223.46
231.066
238.67
246.253
253.798
261.288
268.707
276.038
283.266
290.374
297.344
304.16
310.807
317.267
323.526
329.568
335.378
340.941
346.245
351.277
356.025
360.477
364.622
368.451
371.954
375.127
377.963
380.457
382.604
384.401
385.847
386.939
387.679
388.064
388.095
387.771
387.094
386.07
384.712
383.034
381.027
378.701
376.063
373.125
369.898
366.394
362.624
358.601
354.337
349.846
345.141
340.237
335.148
329.888
324.474
318.919
313.241
307.454
301.572
295.613
289.589
283.515
277.406
271.274
265.133
258.996
252.874
246.779
240.721
234.714
228.771
222.904
217.124
211.446
205.886
200.469
195.223
190.182
185.393
180.915
176.827
173.225
170.243
167.934
166.646
165.441
164.286
0
0.919133
1.01185
1.28741
1.48574
1.60116
1.66125
1.68422
1.683
1.66803
1.64698
1.62583
1.60854
1.59802
1.59611
1.60419
1.62342
1.65484
1.69943
1.75834
1.83273
1.92388
2.03326
2.16249
2.31343
2.48811
2.68875
2.91771
3.1775
3.47069
3.79989
4.16772
4.57681
5.02982
5.52948
6.0785
6.67973
7.33618
8.05108
8.82784
9.66998
10.5809
11.5646
12.625
13.7665
14.992
16.3058
17.7119
19.2142
20.8181
22.529
24.3527
26.2953
28.3626
30.5611
32.897
35.3772
38.0087
40.7989
43.7552
46.8851
50.196
53.6951
57.3892
61.285
65.3883
69.7049
74.2396
78.9966
83.9793
89.1903
94.6314
100.303
106.206
112.338
118.697
125.28
132.082
139.099
146.322
153.746
161.36
169.156
177.122
185.247
193.518
201.921
210.442
219.066
227.776
236.554
245.384
254.248
263.127
272.001
280.85
289.654
298.391
307.044
315.592
324.018
332.3
340.42
348.36
356.101
363.624
370.912
377.948
384.715
391.197
397.378
403.244
408.782
413.978
418.82
423.297
427.399
431.119
434.449
437.384
439.92
442.051
443.776
445.092
446.001
446.502
446.598
446.287
445.573
444.457
442.947
441.062
438.816
436.191
433.208
429.878
426.213
422.226
417.933
413.346
408.481
403.352
397.974
392.364
386.537
380.511
374.303
367.931
361.411
354.761
347.999
341.143
334.208
327.211
320.168
313.095
306.006
298.916
291.838
284.786
277.772
270.81
263.912
257.095
250.371
243.754
237.26
230.908
224.723
218.735
212.981
207.509
202.379
197.666
193.457
189.866
186.913
184.916
182.831
180.968
0
0.932634
0.904294
1.11889
1.27835
1.36704
1.4059
1.41072
1.39394
1.36575
1.33415
1.30464
1.28124
1.26683
1.26343
1.27256
1.29532
1.33261
1.38527
1.45412
1.54006
1.64412
1.76747
1.91149
2.07778
2.2682
2.48489
2.73013
3.00647
3.31662
3.66343
4.04991
4.47919
4.95459
5.47953
6.05753
6.69242
7.38794
8.1485
8.97868
9.88325
10.8678
11.9365
13.0945
14.3469
15.6999
17.1595
18.7322
20.4245
22.2436
24.1971
26.2932
28.5396
30.9443
33.5152
36.2605
39.1891
42.3098
45.6318
49.164
52.9153
56.8941
61.1085
65.5658
70.2728
75.2357
80.4594
85.9485
91.706
97.7343
104.035
110.607
117.45
124.561
131.937
139.572
147.462
155.598
163.972
172.573
181.392
190.415
199.631
209.024
218.579
228.279
238.109
248.049
258.081
268.183
278.338
288.524
298.72
308.904
319.053
329.145
339.155
349.063
358.845
368.48
377.947
387.224
396.289
405.123
413.705
422.016
430.037
437.749
445.134
452.176
458.859
465.168
471.088
476.606
481.71
486.388
490.633
494.435
497.789
500.69
503.132
505.112
506.629
507.683
508.275
508.407
508.081
507.301
506.073
504.393
502.277
499.753
496.817
493.463
489.715
485.587
481.093
476.248
471.071
465.576
459.78
453.701
447.355
440.761
433.938
426.905
419.68
412.285
404.738
397.059
389.267
381.381
373.42
365.402
357.345
349.265
341.177
333.099
325.045
317.028
309.063
301.165
293.349
285.629
278.022
270.542
263.208
256.039
249.061
242.307
235.814
229.631
223.816
218.441
213.582
209.336
205.694
202.957
200
197.476
0
0.942362
0.790353
0.940496
1.05656
1.11328
1.12675
1.11163
1.07957
1.04046
1.00191
0.969493
0.946941
0.93669
0.940277
0.958685
0.992577
1.04248
1.10889
1.19236
1.29354
1.41328
1.5526
1.7128
1.89542
2.10236
2.3358
2.59828
2.89259
3.22186
3.58948
3.99898
4.45438
4.95985
5.51991
6.13942
6.82374
7.57899
8.41035
9.32371
10.3253
11.4211
12.6187
13.9259
15.3506
16.9015
18.5872
20.4167
22.3993
24.5447
26.8629
29.364
32.0576
34.9535
38.0615
41.3918
44.9552
48.7622
52.8233
57.1483
61.7466
66.6267
71.7964
77.2625
83.0307
89.1055
95.4906
102.188
109.199
116.523
124.158
132.102
140.349
148.894
157.73
166.848
176.238
185.889
195.788
205.923
216.276
226.834
237.579
248.494
259.558
270.752
282.056
293.447
304.903
316.402
327.921
339.437
350.924
362.36
373.718
384.973
396.101
407.076
417.875
428.475
438.853
448.985
458.848
468.422
477.685
486.618
495.2
503.413
511.238
518.659
525.659
532.225
538.34
543.992
549.17
553.863
558.063
561.763
564.958
567.641
569.811
571.462
572.6
573.218
573.329
572.926
572.021
570.626
568.73
566.342
563.485
560.192
556.431
552.223
547.593
542.553
537.122
531.318
525.159
518.664
511.85
504.738
497.347
489.697
481.808
473.703
465.402
456.928
448.302
439.545
430.677
421.721
412.696
403.622
394.517
385.4
376.287
367.195
358.139
349.137
340.202
331.351
322.598
313.962
305.457
297.101
288.911
280.911
273.127
265.591
258.343
251.429
244.907
238.843
233.302
228.368
224.009
220.519
216.709
213.571
0
0.954045
0.682558
0.769858
0.841277
0.864094
0.850334
0.813943
0.766897
0.719143
0.677936
0.648074
0.632465
0.632682
0.649417
0.682895
0.733126
0.80012
0.884011
0.985126
1.10401
1.24148
1.39865
1.57697
1.77826
2.00472
2.25902
2.54419
2.86372
3.22167
3.62265
4.07215
4.57535
5.13777
5.7654
6.46485
7.24327
8.10847
9.06872
10.1326
11.3087
12.6067
14.0372
15.611
17.3397
19.2348
21.3083
23.5719
26.0382
28.7192
31.6269
34.7728
38.1679
41.8233
45.7508
49.9622
54.4695
59.2837
64.4147
69.8718
75.6626
81.7939
88.271
95.0976
102.276
109.808
117.693
125.929
134.512
143.439
152.701
162.292
172.203
182.422
192.938
203.739
214.808
226.13
237.689
249.467
261.444
273.602
285.92
298.376
310.949
323.616
336.352
349.135
361.939
374.74
387.511
400.227
412.862
425.389
437.782
450.014
462.06
473.893
485.491
496.827
507.88
518.624
529.037
539.097
548.784
558.078
566.96
575.408
583.407
590.94
597.994
604.553
610.601
616.128
621.124
625.58
629.488
632.843
635.641
637.874
639.547
640.649
641.194
641.174
640.592
639.465
637.804
635.604
632.868
629.612
625.868
621.649
616.919
611.725
606.085
600.016
593.537
586.669
579.431
571.845
563.93
555.708
547.2
538.428
529.415
520.185
510.76
501.163
491.418
481.549
471.576
461.523
451.41
441.259
431.09
420.921
410.77
400.654
390.591
380.597
370.688
360.881
351.192
341.637
332.235
323.002
313.958
305.126
296.533
288.213
280.203
272.551
265.31
258.541
252.302
246.66
241.572
237.333
232.696
229
0
0.970775
0.585077
0.614279
0.641459
0.628291
0.585867
0.528697
0.469186
0.416968
0.37845
0.357258
0.354981
0.371938
0.407734
0.461676
0.533099
0.621562
0.727039
0.849905
0.990898
1.15117
1.33241
1.53691
1.7676
2.02806
2.32185
2.65326
3.02724
3.44969
3.92748
4.468
5.07948
5.77037
6.54989
7.42803
8.41575
9.52406
10.7662
12.1554
13.7054
15.4305
17.3451
19.4641
21.8028
24.3758
27.1978
30.2833
33.6467
37.3015
41.2599
45.5343
50.1327
55.0679
60.352
65.9961
72.0099
78.401
85.1754
92.3372
99.8888
107.831
116.163
124.883
133.986
143.466
153.317
163.53
174.095
185.001
196.236
207.784
219.632
231.763
244.161
256.808
269.684
282.769
296.043
309.484
323.072
336.782
350.594
364.483
378.426
392.397
406.372
420.326
434.232
448.063
461.795
475.401
488.856
502.132
515.205
528.047
540.634
552.941
564.944
576.618
587.942
598.891
609.444
619.58
629.281
638.529
647.303
655.584
663.356
670.605
677.321
683.489
689.093
694.125
698.578
702.442
705.715
708.387
710.465
711.93
712.801
713.059
712.736
711.781
710.275
708.183
705.521
702.293
698.504
694.18
689.37
684.025
678.159
671.817
665.016
657.776
650.116
642.059
633.629
624.845
615.732
606.31
596.603
586.635
576.43
566.014
555.41
544.643
533.738
522.718
511.608
500.429
489.206
477.959
466.709
455.475
444.276
433.129
422.053
411.064
400.179
389.416
378.791
368.321
358.024
347.918
338.024
328.363
318.965
309.86
301.089
292.695
284.729
277.246
270.297
263.939
258.119
253.139
247.7
243.516
0
0.9842
0.504088
0.486365
0.475077
0.43049
0.364536
0.292746
0.227802
0.178559
0.149957
0.143889
0.160344
0.198349
0.256568
0.333706
0.428868
0.541911
0.673382
0.824366
0.99646
1.19183
1.41363
1.66606
1.95427
2.284
2.66183
3.09469
3.59111
4.16126
4.81674
5.56997
6.43404
7.42312
8.55193
9.83709
11.2967
12.9507
14.8181
16.9175
19.267
21.8847
24.7893
27.9992
31.5322
35.4035
39.6264
44.2143
49.1801
54.5344
60.2878
66.4427
73.0064
79.9896
87.398
95.2344
103.499
112.189
121.3
130.826
140.76
151.093
161.814
172.91
184.369
196.176
208.317
220.775
233.535
246.578
259.886
273.44
287.222
301.21
315.386
329.729
344.217
358.828
373.542
388.335
403.186
418.073
432.973
447.863
462.719
477.518
492.234
506.842
521.317
535.636
549.778
563.717
577.429
590.888
604.072
616.957
629.52
641.739
653.589
665.05
676.098
686.713
696.876
706.569
715.776
724.48
732.663
740.308
747.401
753.936
759.901
765.28
770.057
774.228
777.783
780.72
783.035
784.715
785.78
786.2
786.013
785.16
783.709
781.634
778.949
775.667
771.798
767.347
762.334
756.805
750.765
744.155
737.04
729.446
721.395
712.905
704
694.703
685.037
675.027
664.694
654.062
643.154
631.997
620.616
609.036
597.282
585.381
573.356
561.233
549.034
536.785
524.507
512.223
499.953
487.717
475.534
463.421
451.395
439.476
427.678
416.022
404.522
393.196
382.062
371.133
360.433
349.988
339.823
329.973
320.473
311.367
302.701
294.528
286.889
279.836
273.309
267.624
261.419
256.858
0
0.988853
0.444627
0.398654
0.361091
0.295149
0.215683
0.139438
0.0786263
0.0404547
0.0277955
0.0406656
0.077794
0.137655
0.218822
0.320208
0.441623
0.584216
0.750478
0.943735
1.16785
1.42774
1.73019
2.08442
2.50137
2.99302
3.57121
4.25
5.04596
5.97932
7.07283
8.35123
9.83911
11.5584
13.5321
15.7857
18.3463
21.24
24.4921
28.1239
32.1545
36.5984
41.4704
46.784
52.5504
58.7789
65.476
72.6447
80.2901
88.4009
96.969
105.981
115.457
125.382
135.746
146.535
157.732
169.32
181.282
193.598
206.25
219.221
232.489
246.036
259.842
273.888
288.154
302.621
317.27
332.082