# vtk DataFile Version 2.0
tracks
ASCII
DATASET POLYDATA
POINTS 12065 float
-0.0206 0.000999956 1e-05 -0.02058 0.000999959 1e-05 -0.02056 0.000999965 1e-05 -0.02054 0.000999974
1e-05 -0.02052 0.000999985 1e-05 -0.0205 0.001 1e-05 -0.0202034 0.00100022 1e-05
-0.0199069 0.00100067 1e-05 -0.0196103 0.00100132 1e-05 -0.0193137 0.00100219 1e-05 -0.0190172
0.00100326 1e-05 -0.0187132 0.00100467 1e-05 -0.0184093 0.00100589 1e-05 -0.0181054 0.0010071
1e-05 -0.0178015 0.00100832 1e-05 -0.0174976 0.00100954 1e-05 -0.0172058 0.00101083 1e-05
-0.016914 0.00101194 1e-05 -0.0166222 0.00101304 1e-05 -0.0163305 0.00101414 1e-05 -0.0160387
0.00101523 1e-05 -0.0157586 0.00101638 1e-05 -0.0154784 0.00101746 1e-05 -0.0151983 0.00101858
1e-05 -0.0149182 0.00101973 1e-05 -0.0146381 0.00102092 1e-05 -0.014376 0.0010221 1e-05
-0.0141139 0.00102328 1e-05 -0.0138518 0.0010245 1e-05 -0.0135897 0.00102574 1e-05 -0.0133684
0.00102682 1e-05 -0.0133534 0.00102689 1e-05 -0.0133384 0.00102697 1e-05 -0.0133234 0.00102704
1e-05 -0.0133084 0.00102712 1e-05 -0.0132934 0.00102719 1e-05 -0.0130353 0.00102848 1e-05
-0.0127771 0.00102979 1e-05 -0.0125189 0.00103111 1e-05 -0.0122607 0.00103245 1e-05 -0.0120025
0.00103381 1e-05 -0.0117547 0.00103512 1e-05 -0.0115068 0.00103644 1e-05 -0.0112589 0.00103777
1e-05 -0.0110111 0.0010391 1e-05 -0.0107632 0.00104043 1e-05 -0.0105252 0.00104172 1e-05
-0.0102873 0.001043 1e-05 -0.0100493 0.00104429 1e-05 -0.00981133 0.00104557 1e-05 -0.00957337
0.00104686 1e-05 -0.00934491 0.00104809 1e-05 -0.00911645 0.00104932 1e-05 -0.008888 0.00105055
1e-05 -0.00865954 0.00105178 1e-05 -0.00843108 0.001053 1e-05 -0.00821175 0.00105417 1e-05
-0.00799242 0.00105534 1e-05 -0.00777309 0.00105651 1e-05 -0.00755376 0.00105767 1e-05 -0.00733443
0.00105883 1e-05 -0.00712387 0.00105994 1e-05 -0.0069133 0.00106104 1e-05 -0.00670273 0.00106215
1e-05 -0.00649216 0.00106325 1e-05 -0.0062816 0.00106435 1e-05 -0.00607944 0.00106539 1e-05
-0.00587729 0.00106644 1e-05 -0.00567514 0.00106749 1e-05 -0.00547298 0.00106853 1e-05 -0.00527083
0.00106958 1e-05 -0.00507675 0.00107057 1e-05 -0.00488267 0.00107156 1e-05 -0.0046886 0.00107256
1e-05 -0.00449452 0.00107355 1e-05 -0.00430044 0.00107455 1e-05 -0.00411412 0.0010755 1e-05
-0.0039278 0.00107645 1e-05 -0.00374147 0.00107741 1e-05 -0.00355515 0.00107836 1e-05 -0.00336883
0.00107932 1e-05 -0.00318995 0.00108023 1e-05 -0.00301107 0.00108116 1e-05 -0.00283219 0.00108209
1e-05 -0.00265331 0.00108302 1e-05 -0.00247443 0.00108396 1e-05 -0.0023027 0.00108487 1e-05
-0.00213097 0.00108578 1e-05 -0.00195924 0.00108671 1e-05 -0.00178751 0.00108765 1e-05 -0.00161577
0.0010886 1e-05 -0.0014509 0.00108951 1e-05 -0.00128603 0.00109045 1e-05 -0.00112116 0.00109141
1e-05 -0.00095629 0.00109239 1e-05 -0.000791418 0.00109339 1e-05 -0.000633135 0.00109438 1e-05
-0.000474851 0.0010954 1e-05 -0.000316568 0.00109645 1e-05 -0.000158285 0.00109753 1e-05 0
0.00109864 1e-05 0.000105677 0.00109939 1e-05 0.000211355 0.00110016 1e-05 0.000317032 0.00110093
1e-05 0.000422709 0.00110171 1e-05 0.000528387 0.0011025 1e-05 0.000634886 0.00110329 1e-05
0.000741385 0.00110407 1e-05 0.000847885 0.00110485 1e-05 0.000954384 0.00110562 1e-05 0.00106088
0.00110638 1e-05 0.00116821 0.00110713 1e-05 0.00127554 0.00110787 1e-05 0.00138286 0.0011086
1e-05 0.00149019 0.0011093 1e-05 0.00159752 0.00111 1e-05 0.00170568 0.00111068 1e-05
0.00181384 0.00111135 1e-05 0.001922 0.001112 1e-05 0.00203016 0.00111263 1e-05 0.00213833
0.00111325 1e-05 0.00224733 0.00111385 1e-05 0.00235633 0.00111445 1e-05 0.00246533 0.00111502
1e-05 0.00257434 0.00111559 1e-05 0.00268334 0.00111613 1e-05 0.00279319 0.00111666 1e-05
0.00290304 0.00111718 1e-05 0.00301289 0.00111769 1e-05 0.00312274 0.00111818 1e-05 0.00323259
0.00111866 1e-05 0.00334329 0.00111912 1e-05 0.003454 0.00111957 1e-05 0.0035647 0.00112001
1e-05 0.0036754 0.00112043 1e-05 0.00378611 0.00112084 1e-05 0.00389767 0.00112123 1e-05
0.00400924 0.00112162 1e-05 0.0041208 0.00112199 1e-05 0.00423237 0.00112235 1e-05 0.00434393
0.00112269 1e-05 0.00445636 0.00112301 1e-05 0.00456879 0.00112333 1e-05 0.00468123 0.00112364
1e-05 0.00479366 0.00112393 1e-05 0.00490609 0.0011242 1e-05 0.0050194 0.00112446 1e-05
0.0051327 0.00112471 1e-05 0.00524601 0.00112495 1e-05 0.00535932 0.00112518 1e-05 0.00547262
0.00112539 1e-05 0.00558681 0.00112558 1e-05 0.005701 0.00112577 1e-05 0.00581518 0.00112595
1e-05 0.00592937 0.00112611 1e-05 0.00604356 0.00112626 1e-05 0.00615863 0.00112639 1e-05
0.00627371 0.00112651 1e-05 0.00638878 0.00112663 1e-05 0.00650386 0.00112673 1e-05 0.00661893
0.00112682 1e-05 0.0067349 0.00112689 1e-05 0.00685087 0.00112695 1e-05 0.00696684 0.00112701
1e-05 0.00708281 0.00112705 1e-05 0.00719878 0.00112708 1e-05 0.00731565 0.00112709 1e-05
0.00743252 0.0011271 1e-05 0.00754939 0.00112709 1e-05 0.00766626 0.00112708 1e-05 0.00778313
0.00112705 1e-05 0.00790091 0.001127 1e-05 0.00801869 0.00112695 1e-05 0.00813647 0.00112689
1e-05 0.00825425 0.00112681 1e-05 0.00837203 0.00112673 1e-05 0.00843708 0.00112667 1e-05
0.00850213 0.00112661 1e-05 0.00856717 0.00112655 1e-05 0.00863222 0.00112649 1e-05 0.00869481
0.00112642 1e-05 0.00874895 0.00112636 1e-05 0.00880309 0.0011263 1e-05 0.00885723 0.00112624
1e-05 0.00891137 0.00112617 1e-05 0.00896551 0.0011261 1e-05 0.00908513 0.00112594 1e-05
0.00920475 0.00112577 1e-05 0.00932437 0.00112559 1e-05 0.00944398 0.0011254 1e-05 0.0095636
0.00112519 1e-05 0.00968415 0.00112497 1e-05 0.0098047 0.00112474 1e-05 0.00992525 0.0011245
1e-05 0.0100458 0.00112425 1e-05 0.0101663 0.00112399 1e-05 0.0102878 0.0011237 1e-05
0.0104093 0.00112341 1e-05 0.0105308 0.00112311 1e-05 0.0106523 0.0011228 1e-05 0.0107738
0.00112247 1e-05 0.0108962 0.00112213 1e-05 0.0110186 0.00112177 1e-05 0.0111411 0.00112141
1e-05 0.0112635 0.00112104 1e-05 0.0113859 0.00112065 1e-05 0.0115093 0.00112024 1e-05
0.0116327 0.00111982 1e-05 0.0117561 0.0011194 1e-05 0.0118795 0.00111896 1e-05 0.0120028
0.00111851 1e-05 0.0121272 0.00111804 1e-05 0.0122515 0.00111756 1e-05 0.0123759 0.00111707
1e-05 0.0125002 0.00111656 1e-05 0.0126245 0.00111605 1e-05 0.0127498 0.00111551 1e-05
0.0128752 0.00111496 1e-05 0.0130005 0.00111441 1e-05 0.0131258 0.00111384 1e-05 0.0132511
0.00111325 1e-05 0.0133774 0.00111265 1e-05 0.0135036 0.00111204 1e-05 0.0136299 0.00111141
1e-05 0.0137562 0.00111077 1e-05 0.0138825 0.00111012 1e-05 0.0140098 0.00110946 1e-05
0.014137 0.00110877 1e-05 0.0142643 0.00110808 1e-05 0.0143915 0.00110737 1e-05 0.0145188
0.00110665 1e-05 0.0146471 0.00110592 1e-05 0.0147753 0.00110516 1e-05 0.0149036 0.00110439
1e-05 0.0150318 0.00110361 1e-05 0.0151601 0.00110282 1e-05 0.0152893 0.00110202 1e-05
0.0154186 0.00110119 1e-05 0.0155478 0.00110035 1e-05 0.0156771 0.0010995 1e-05 0.0158063
0.00109863 1e-05 0.0159366 0.00109776 1e-05 0.0160668 0.00109686 1e-05 0.0161971 0.00109594
1e-05 0.0163273 0.00109501 1e-05 0.0164576 0.00109407 1e-05 0.0165889 0.00109312 1e-05
0.0167201 0.00109214 1e-05 0.0168514 0.00109115 1e-05 0.0169827 0.00109014 1e-05 0.0171139
0.00108912 1e-05 0.0172462 0.0010881 1e-05 0.0173785 0.00108704 1e-05 0.0175108 0.00108596
1e-05 0.0176431 0.00108487 1e-05 0.0177754 0.00108377 1e-05 0.0179087 0.00108267 1e-05
0.018042 0.00108154 1e-05 0.0181753 0.00108037 1e-05 0.0183087 0.00107919 1e-05 0.018442
0.00107801 1e-05 0.0185763 0.00107683 1e-05 0.0187107 0.00107561 1e-05 0.018845 0.00107436
1e-05 0.0189794 0.00107309 1e-05 0.0191137 0.00107182 1e-05 0.0192491 0.00107055 1e-05
0.0193845 0.00106924 1e-05 0.0195199 0.00106789 1e-05 0.0196553 0.00106653 1e-05 0.0197907
0.00106517 1e-05 0.0199272 0.00106381 1e-05 0.0200636 0.00106241 1e-05 0.0202001 0.00106097
1e-05 0.0203365 0.00105952 1e-05 0.020473 0.00105807 1e-05 0.0206105 0.00105661 1e-05
0.020748 0.00105512 1e-05 0.0208855 0.00105359 1e-05 0.021023 0.00105204 1e-05 0.0211606
0.00105049 1e-05 0.0212991 0.00104894 1e-05 0.0214377 0.00104735 1e-05 0.0215763 0.00104572
1e-05 0.0217149 0.00104407 1e-05 0.0218535 0.00104242 1e-05 0.0219931 0.00104076 1e-05
0.0221328 0.00103907 1e-05 0.0222724 0.00103733 1e-05 0.0224121 0.00103558 1e-05 0.0225517
0.00103382 1e-05 0.0226925 0.00103206 1e-05 0.0228332 0.00103025 1e-05 0.022974 0.00102841
1e-05 0.0231147 0.00102654 1e-05 0.0232555 0.00102467 1e-05 0.0233973 0.0010228 1e-05
0.0235391 0.00102088 1e-05 0.023681 0.00101892 1e-05 0.0238228 0.00101694 1e-05 0.0239647
0.00101496 1e-05 0.0241076 0.00101296 1e-05 0.0242505 0.00101093 1e-05 0.0243935 0.00100885
1e-05 0.0245364 0.00100676 1e-05 0.0246794 0.00100465 1e-05 0.0248234 0.00100254 1e-05
0.0249675 0.00100037 1e-05 0.0251115 0.000998176 1e-05 0.0252556 0.000995958 1e-05 0.0253996
0.000993729 1e-05 0.0255448 0.00099148 1e-05 0.02569 0.000989187 1e-05 0.0258351 0.000986862
1e-05 0.0259803 0.000984514 1e-05 0.0261255 0.000982151 1e-05 0.0262718 0.000979765 1e-05
0.0264181 0.000977334 1e-05 0.0265644 0.000974874 1e-05 0.0267107 0.000972391 1e-05 0.026857
0.000969886 1e-05 0.0270044 0.000967357 1e-05 0.0271519 0.00096478 1e-05 0.0272993 0.000962178
1e-05 0.0274467 0.000959552 1e-05 0.0275942 0.000956901 1e-05 0.0277428 0.00095422 1e-05
0.0278914 0.000951496 1e-05 0.0280399 0.000948746 1e-05 0.0281885 0.00094597 1e-05 0.0283371
0.000943168 1e-05 0.0284869 0.000940331 1e-05 0.0286366 0.000937453 1e-05 0.0287863 0.000934548
1e-05 0.0289361 0.000931615 1e-05 0.0290858 0.000928656 1e-05 0.0292367 0.000925654 1e-05
0.0293876 0.000922614 1e-05 0.0295385 0.000919546 1e-05 0.0296894 0.00091645 1e-05 0.0298403
0.000913325 1e-05 0.0299898 0.000910205 1e-05 0.0301393 0.000907053 1e-05 0.0302888 0.000903871
1e-05 0.0304382 0.000900661 1e-05 0.0305774 0.000897646 1e-05 0.030582 0.000897544 1e-05
0.0305867 0.000897442 1e-05 0.0305914 0.00089734 1e-05 0.0305961 0.000897238 1e-05 0.0306007
0.000897136 1e-05 0.030754 0.000893783 1e-05 0.0309072 0.000890399 1e-05 0.0310605 0.000886983
1e-05 0.0312138 0.000883537 1e-05 0.031367 0.000880059 1e-05 0.0315215 0.000876528 1e-05
[...]
POINT_DATA 12065
FIELD attributes 4
age 1 12065 float
-9.99973e-06 -7.99975e-06 -5.99979e-06 -3.99984e-06 -1.99991e-06 0 2.96554e-05 5.93049e-05 8.89484e-05 0.000118586 0.000148218
0.000178569 0.000208911 0.00023924 0.000269556 0.000299858 0.000328933 0.000357999 0.000387054 0.000416097 0.000445128
0.000472989 0.000500843 0.000528691 0.000556532 0.000584366 0.000610404 0.000636438 0.000662468 0.000688496 0.000710464
0.000711953 0.000713442 0.000714932 0.000716421 0.00071791 0.000743542 0.000769172 0.000794801 0.000820429 0.000846056
0.000870657 0.000895259 0.000919862 0.000944466 0.000969071 0.000992694 0.00101632 0.00103995 0.00106358 0.00108721
0.0011099 0.00113259 0.00115529 0.00117799 0.00120069 0.0012225 0.0012443 0.00126611 0.00128792 0.00130974
0.00133069 0.00135164 0.0013726 0.00139356 0.00141453 0.00143467 0.0014548 0.00147494 0.00149509 0.00151524
0.0015346 0.00155395 0.00157331 0.00159268 0.00161205 0.00163066 0.00164926 0.00166787 0.00168649 0.00170511
0.001723 0.00174088 0.00175877 0.00177667 0.00179457 0.00181177 0.00182896 0.00184615 0.00186335 0.00188056
0.0018971 0.00191362 0.00193015 0.00194669 0.00196322 0.00197912 0.001995 0.00201088 0.00202676 0.00204265
0.00205327 0.00206387 0.00207448 0.00208508 0.00209569 0.00210639 0.00211707 0.00212776 0.00213844 0.00214913
0.00215991 0.00217068 0.00218145 0.00219222 0.00220299 0.00221386 0.00222472 0.00223558 0.00224644 0.0022573
0.00226826 0.00227921 0.00229016 0.00230112 0.00231208 0.00232314 0.00233419 0.00234524 0.00235629 0.00236735
0.00237852 0.00238967 0.00240082 0.00241199 0.00242315 0.00243442 0.00244568 0.00245695 0.00246822 0.00247949
0.00249088 0.00250225 0.00251363 0.00252501 0.00253641 0.00254791 0.0025594 0.0025709 0.00258241 0.00259392
0.00260555 0.00261717 0.00262879 0.00264043 0.00265207 0.00266382 0.00267557 0.00268733 0.0026991 0.00271087
0.00272276 0.00273465 0.00274654 0.00275845 0.00277037 0.00278239 0.00279442 0.00280646 0.00281851 0.00283058
0.00284275 0.00285493 0.00286712 0.00287932 0.00289153 0.00289829 0.00290504 0.0029118 0.00291857 0.00292508
0.00293072 0.00293635 0.002942 0.00294764 0.00295329 0.00296577 0.00297827 0.00299078 0.0030033 0.00301584
0.0030285 0.00304117 0.00305384 0.00306654 0.00307925 0.00309209 0.00310493 0.00311778 0.00313065 0.00314354
0.00315657 0.00316959 0.00318262 0.00319567 0.00320874 0.00322196 0.00323517 0.00324839 0.00326163 0.00327488
0.0032883 0.00330169 0.00331511 0.00332854 0.00334199 0.0033556 0.00336919 0.0033828 0.00339643 0.00341008
0.00342389 0.00343768 0.00345149 0.00346532 0.00347917 0.00349319 0.00350719 0.00352121 0.00353524 0.0035493
0.00356353 0.00357774 0.00359196 0.00360621 0.00362048 0.00363492 0.00364934 0.00366378 0.00367824 0.00369273
0.00370739 0.00372203 0.00373669 0.00375136 0.00376607 0.00378095 0.00379582 0.00381069 0.00382559 0.00384052
0.00385561 0.00387071 0.0038858 0.00390092 0.00391608 0.0039314 0.00394672 0.00396204 0.00397738 0.00399276
0.00400831 0.00402386 0.00403941 0.00405498 0.00407059 0.00408637 0.00410214 0.00411792 0.00413373 0.00414957
0.00416558 0.00418159 0.0041976 0.00421364 0.00422971 0.00424595 0.0042622 0.00427845 0.00429472 0.00431103
0.0043275 0.00434398 0.00436047 0.00437698 0.00439353 0.00441024 0.00442696 0.00444369 0.00446044 0.00447722
0.00449417 0.00451113 0.0045281 0.00454509 0.00456212 0.00457931 0.00459651 0.00461373 0.00463096 0.00464823
0.00466567 0.00468311 0.00470058 0.00471806 0.00473557 0.00475325 0.00477095 0.00478866 0.00480639 0.00482415
0.00484208 0.00486003 0.00487799 0.00489598 0.00491399 0.00493217 0.00495037 0.00496859 0.00498683 0.00500509
0.00502353 0.00504198 0.00506046 0.00507895 0.00509747 0.00511617 0.00513488 0.00515362 0.00517238 0.00519116
0.00521012 0.00522909 0.00524809 0.00526711 0.00528616 0.00530538 0.00532463 0.00534389 0.00536318 0.0053825
0.00540166 0.00542084 0.00544004 0.00545927 0.00547719 0.00547779 0.00547839 0.00547899 0.0054796 0.0054802
0.00549996 0.00551975 0.00553957 0.00555941 0.00557928 0.00559933 0.0056194 0.00563951 0.00565963 0.00567979
0.00570012 0.00572049 0.00574088 0.0057613 0.00578175 0.00580238 0.00582304 0.00584372 0.00586444 0.00588519
0.00590612 0.00592708 0.00594807 0.00596909 0.00599014 0.00601137 0.00603264 0.00605394 0.00607527 0.00609663
0.00611818 0.00613976 0.00616138 0.00618303 0.00620471 0.00622657 0.00624848 0.00627042 0.0062924 0.0063144
0.0063366 0.00635883 0.00638111 0.00640342 0.00642576 0.00644829 0.00647087 0.00649349 0.00651614 0.00653882
0.00656171 0.00658464 0.00660761 0.00663061 0.00665365 0.00667689 0.00670018 0.00672351 0.00674687 0.00677027
0.00679389 0.00681755 0.00684125 0.00686498 0.00688876 0.00691275 0.0069368 0.00696088 0.006985 0.00700916
0.00703355 0.00705798 0.00708246 0.00710698 0.00713154 0.00715633 0.00718116 0.00720604 0.00723097 0.00725594
0.00725905 0.00726217 0.00726529 0.00726841 0.00727151 0.00729363 0.00731578 0.00733797 0.0073602 0.00738246
0.00740809 0.00743378 0.00745951 0.00748529 0.00751113 0.0075372 0.00756333 0.00758951 0.00761574 0.00764203
0.00766855 0.00769514 0.00772178 0.00774848 0.00777522 0.00780221 0.00782926 0.00785638 0.00788355 0.00791077
0.00793823 0.00796577 0.00799337 0.00802102 0.00804872 0.00807668 0.0081047 0.00813279 0.00816094 0.00818913
0.00821759 0.00824611 0.00827471 0.00830336 0.00833206 0.00836102 0.00839006 0.00841916 0.00844831 0.00847752
0.008507 0.00853655 0.00856617 0.00859584 0.00862556 0.00865556 0.00868564 0.00871577 0.00874595 0.0087762
0.00880673 0.00883732 0.00886797 0.00889867 0.00892944 0.00892994 0.00893045 0.00893096 0.00893147 0.00893197
0.00896253 0.00899314 0.0090238 0.00905452 0.0090853 0.00911688 0.00914852 0.00918022 0.00921198 0.00924379
0.00927589 0.00930805 0.00934027 0.00937255 0.00940488 0.00943749 0.00947017 0.00950291 0.0095357 0.00956853
0.00960165 0.00963483 0.00966808 0.00970137 0.0097347 0.00976832 0.00980199 0.00983573 0.00986951 0.00990331
0.00993742 0.00997157 0.0100058 0.01004 0.0100743 0.0101089 0.0101435 0.0101782 0.0102129 0.0102476
0.0102826 0.0103177 0.0103528 0.0103879 0.0104231 0.0104585 0.010494 0.0105295 0.0105651 0.0106006
0.0106365 0.0106724 0.0107083 0.0107443 0.0107802 0.0108165 0.0108528 0.0108891 0.0109254 0.0109617
0.0109983 0.011035 0.0110717 0.0111083 0.011145 0.0111626 0.0111802 0.0111979 0.0112155 0.0112341
0.0112533 0.0112725 0.0112916 0.0113108 0.01133 0.0113674 0.0114047 0.011442 0.0114793 0.0115167
0.0115543 0.0115919 0.0116295 0.0116672 0.0117048 0.0117427 0.0117807 0.0118186 0.0118565 0.0118944
0.0119326 0.0119708 0.0120091 0.0120473 0.0120855 0.012124 0.0121624 0.0122009 0.0122394 0.0122779
0.0123166 0.0123554 0.0123941 0.0124329 0.0124716 0.0125106 0.0125497 0.0125887 0.0126277 0.0126667
0.012706 0.0127452 0.0127845 0.0128238 0.012863 0.0129026 0.0129421 0.0129817 0.0130212 0.0130607
0.0131006 0.0131404 0.0131802 0.01322 0.0132597 0.0132998 0.0133399 0.01338 0.0134201 0.0134601
0.0135005 0.0135409 0.0135812 0.0136216 0.013662 0.0137026 0.0137433 0.0137839 0.0138246 0.0138653
0.0139062 0.0139472 0.0139882 0.0140291 0.0140701 0.0141114 0.0141527 0.014194 0.0142353 0.0142766
0.0143183 0.01436 0.0144016 0.0144433 0.014485 0.014527 0.014569 0.0146111 0.0146531 0.0146952
0.0147187 0.0147422 0.0147656 0.0147891 0.0148098 0.0148293 0.0148489 0.0148684 0.014888 0.0149075
0.0149504 0.0149933 0.0150362 0.0150791 0.0151221 0.0151654 0.0152087 0.0152521 0.0152955 0.015339
0.0153828 0.0154267 0.0154706 0.0155145 0.0155585 0.0156029 0.0156473 0.0156918 0.0157363 0.0157809
0.0158259 0.0158709 0.015916 0.0159612 0.0160065 0.0160521 0.0160978 0.0161436 0.0161895 0.0162355
0.0162498 0.0162642 0.0162786 0.016293 0.0163066 0.0163388 0.0163712 0.0164035 0.0164359 0.0164683
0.0165155 0.0165628 0.0166102 0.0166576 0.0167053 0.0167533 0.0168015 0.0168497 0.0168981 0.0169467
0.0169957 0.0170449 0.0170941 0.0171435 0.0171932 0.0172212 0.0172493 0.0172774 0.0173056 0.0173314
0.0173541 0.0173769 0.0173997 0.0174225 0.0174454 0.0174967 0.0175481 0.0175997 0.0176514 0.0177035
0.0177561 0.0178088 0.0178617 0.0179148 0.0179684 0.0180124 0.0180566 0.0181009 0.0181453 0.0181847
0.018196 0.0182072 0.0182184 0.0182297 0.0182409 0.0182965 0.0183524 0.0184084 0.0184647 0.0185215
0.0185789 0.0186365 0.0186944 0.0187525 0.0188113 0.0188411 0.0188709 0.0189008 0.0189308 0.018959
0.0189894 0.0190198 0.0190504 0.019081 0.0191118 0.0191733 0.0192352 0.0192973 0.0193598 0.0194232
0.0194788 0.0195346 0.0195908 0.0196472 0.0196983 0.0197081 0.0197179 0.0197278 0.0197376 0.0197474
0.0198141 0.0198812 0.0199486 0.0200165 0.0200854 0.0201549 0.0202248 0.0202951 0.0203659 0.02043
0.0204318 0.0204336 0.0204354 0.0204372 0.0204391 0.020512 0.0205855 0.0206595 0.020734 0.0208098
0.020883 0.0209567 0.0210309 0.0211057 0.0211747 0.0211797 0.0211847 0.0211898 0.0211948 0.0211998
0.0212805 0.0213618 0.0214438 0.0215264 0.0216106 0.0216785 0.0217468 0.0218156 0.0218849 0.0219506
0.0219694 0.0219882 0.0220071 0.022026 0.022045 0.022135 0.0222257 0.0223172 0.0224095 0.0225036
0.022558 0.0226127 0.0226676 0.0227229 0.0227767 0.0228191 0.0228616 0.0229043 0.0229472 0.0229903
0.0230911 0.0231928 0.0232954 0.023399 0.0235042 0.023538 0.023572 0.023606 0.0236402 0.0236741
0.0237481 0.0238225 0.0238974 0.0239729 0.0240489 0.0241564 0.0242648 0.0243743 0.0244847 0.0245944
0.0246003 0.0246063 0.0246122 0.0246181 0.024624 0.0247432 0.0248634 0.0249847 0.0251072 0.0252307
0.0252998 0.0253693 0.0254392 0.0255094 0.0255805 0.025638 0.0256958 0.0257538 0.025812 0.0258703
0.0260021 0.0261349 0.026269 0.0264041 0.0265395 0.0265623 0.0265851 0.026608 0.0266308 0.0266539
0.0267696 0.0268861 0.0270033 0.0271213 0.0272391 0.0273567 0.0274751 0.0275942 0.0277139 0.0278411
0.027866 0.0278909 0.0279158 0.0279408 0.0279658 0.0281145 0.0282641 0.0284146 0.028566 0.0287164
0.0288073 0.0288985 0.02899 0.0290817 0.0291793 0.0292411 0.0293029 0.0293648 0.0294269 0.0294887
0.0296456 0.0298032 0.0299614 0.0301202 0.0302774 0.0303648 0.0304524 0.03054 0.0306279 0.0307224
0.0307938 0.0308654 0.0309369 0.0310086 0.0310799 0.031242 0.0314044 0.0315671 0.0317301 0.0318912
0.03202 0.0321488 0.0322777 0.0324067 0.032553 0.0325841 0.0326152 0.0326462 0.0326773 0.0327083
0.0328726 0.0330369 0.0332012 0.0333653 0.0335278 0.0336922 0.0338565 0.0340206 0.0341845 0.0343468
0.0344391 0.0345314 0.0346236 0.0347157 0.034818 0.0348871 0.0349561 0.035025 0.0350939 0.0351625
0.0353257 0.0354885 0.035651 0.0358131 0.0359738 0.0361359 0.0362975 0.0364588 0.0366195 0.0367791
0.0369398 0.0371 0.0372598 0.0374191 0.0375773 0.0376234 0.0376695 0.0377156 0.0377616 0.0378104
0.0379223 0.038034 0.0381455 0.0382566 0.0383673 0.0385249 0.038682 0.0388386 0.0389946 0.0391497
0.0393057 0.0394612 0.0396161 0.0397705 0.039924 0.0400784 0.0402322 0.0403855 0.0405382 0.0406902
0.040843 0.0409952 0.0411469 0.0412981 0.0414486 0.0415998 0.0417505 0.0419007 0.0420504 0.0421994
0.0422109 0.0422223 0.0422338 0.0422452 0.0422568 0.0423949 0.0425325 0.0426698 0.0428066 0.0429429
0.0430912 0.0432391 0.0433865 0.0435334 0.0436797 0.0438267 0.0439733 0.0441193 0.0442649 0.04441
0.0445559 0.0447012 0.0448461 0.0449905 0.0451344 0.0452791 0.0454234 0.0455671 0.0457105 0.0458534
0.045997 0.0461402 0.046283 0.0464253 0.0465673 0.0467099 0.0468522 0.0469941 0.0471355 0.0472766
0.0474184 0.0475598 0.0477008 0.0478415 0.0479817 0.0481227 0.0482634 0.0484037 0.0485436 0.0486832
0.0488235 0.0489635 0.0491031 0.0492424 0.0493813 0.0495211 0.0496604 0.0497995 0.0499383 0.0500767
0.0502159 0.0503548 0.0504934 0.0506317 0.0507697 0.0508659 0.050962 0.051058 0.0511538 0.0512684
0.0513069 0.0513453 0.0513837 0.0514221 0.0514604 0.0515989 0.0517371 0.051875 0.0520127 0.0521501
0.0522883 0.0524263 0.0525641 0.0527016 0.0528389 0.0529771 0.053115 0.0532527 0.0533902 0.0535275
0.0536657 0.0538037 0.0539415 0.054079 0.0542164 0.0543547 0.0544928 0.0546307 0.0547684 0.0549059
0.0550443 0.0551825 0.0553203 0.0554578 0.055595 0.0557274 0.0558595 0.0559911 0.0561223 0.0562531
0.0563884 0.056523 0.0566568 0.05679 0.0569226 0.0570597 0.057196 0.0573314 0.0574662 0.0576005
0.0577393 0.0578774 0.0580147 0.0581513 0.0582875 0.0584282 0.0585682 0.0587074 0.0588459 0.0589838
0.0591264 0.0592682 0.0594092 0.0595494 0.0596891 0.0598334 0.0599769 0.0601197 0.0602616 0.0604029
0.060549 0.0606942 0.0608386 0.0609823 0.0611252 0.0612729 0.0614198 0.0615659 0.0617112 0.0618557
0.0620051 0.0621535 0.0623012 0.062448 0.0625941 0.062745 0.0628951 0.0630442 0.0631926 0.0633401
0.0634925 0.063644 0.0637946 0.0639444 0.0640933 0.0642471 0.0644 0.064552 0.0647031 0.0648533
0.0649037 0.064954 0.0650042 0.0650543 0.0651078 0.0652108 0.0653133 0.0654155 0.0655172 0.0656185
0.0657749 0.0659303 0.0660846 0.0662381 0.0663906 0.0665481 0.0667045 0.0668599 0.0670143 0.0671678
0.0673263 0.0674836 0.0676399 0.0677952 0.0679494 0.0681088 0.0682669 0.068424 0.06858 0.0687349
0.068895 0.0690537 0.0692113 0.0693678 0.0695233 0.0696839 0.0698432 0.0700013 0.0701581 0.070314
0.0704749 0.0706343 0.0707925 0.0709495 0.0711055 0.0712666 0.0714264 0.0715848 0.0717419 0.0718978
0.0720585 0.0722176 0.072375 0.0725313 0.0726869 0.0728479 0.0730077 0.0731664 0.0733234 0.0734782
0.0736368 0.0737925 0.0739457 0.0740978 0.07425 -9.99997e-06 -7.99997e-06 -5.99998e-06 -3.99998e-06 -1.99999e-06
0 2.96566e-05 5.93127e-05 8.89677e-05 0.000118621 0.000148273 0.000178657 0.000209038 0.000239415 0.000269789
0.000300159 0.00032931 0.000358456 0.000387598 0.000416734 0.000445866 0.000473828 0.000501785 0.000529738 0.000557686
0.000585629 0.000612452 0.00063927 0.000666084 0.000692894 0.000719699 0.00074543 0.000771156 0.000796879 0.000822598
0.000848313 0.000872997 0.000897677 0.000922354 0.000947027 0.000971697 0.000995378 0.00101906 0.00104273 0.0010664
0.00109007 0.00111279 0.00113551 0.00115822 0.00118093 0.00120364 0.00122544 0.00124724 0.00126903 0.00129082
0.00131261 0.00133353 0.00135444 0.00137535 0.00139626 0.00141717 0.00143724 0.00145731 0.00147737 0.00149744
0.0015175 0.00153676 0.00155601 0.00157527 0.00159452 0.00161377 0.00163225 0.00165073 0.00166921 0.00168768
0.00170615 0.00172389 0.00174162 0.00175935 0.00177708 0.0017948 0.00181182 0.00182883 0.00184585 0.00186286
0.00187987 0.0018962 0.00191252 0.00192885 0.00194517 0.00196149 0.00197716 0.00199282 0.00200849 0.00202415
0.00203981 0.00205026 0.00206072 0.00207117 0.00208162 0.00209207 0.0021026 0.00211313 0.00212366 0.00213419
0.00214472 0.00215532 0.00216593 0.00217654 0.00218714 0.00219774 0.00220843 0.00221911 0.0022298 0.00224048
0.00225116 0.00226193 0.00227269 0.00228345 0.00229421 0.00230498 0.00231582 0.00232666 0.00233751 0.00234835
0.00235919 0.00237011 0.00238104 0.00239196 0.00240288 0.0024138 0.00242481 0.00243582 0.00244682 0.00245783
0.00246883 0.00247992 0.00249101 0.0025021 0.00251318 0.00252427 0.00253544 0.00254662 0.00255779 0.00256896
0.00258013 0.00259139 0.00260265 0.0026139 0.00262516 0.00263642 0.00264776 0.0026591 0.00267045 0.00268179
0.00269313 0.00270456 0.00271599 0.00272742 0.00273885 0.00275028 0.00276179 0.00277331 0.00278483 0.00279634
0.00280786 0.00281947 0.00283107 0.00284268 0.00285428 0.00286589 0.00287758 0.00288928 0.00290097 0.00291266
0.00292436 0.00293614 0.00294793 0.00295971 0.00297149 0.00298328 0.00299515 0.00300703 0.0030189 0.00303078
0.00304265 0.00305462 0.00306658 0.00307855 0.00309052 0.00310248 0.00311454 0.0031266 0.00313865 0.00315071
0.00316277 0.00317492 0.00318707 0.00319922 0.00321137 0.00322352 0.00323577 0.00324801 0.00326025 0.0032725
0.00328474 0.00329708 0.00330942 0.00332176 0.00333409 0.00334643 0.00335886 0.0033713 0.00338373 0.00339616
0.00340859 0.00342112 0.00343365 0.00344618 0.0034587 0.00347123 0.00348386 0.00349648 0.0035091 0.00352173
0.00353435 0.00354707 0.00355979 0.00357251 0.00358523 0.00359795 0.00361077 0.00362359 0.00363641 0.00364922
0.00366204 0.00367496 0.00368788 0.00370079 0.00371371 0.00372662 0.00373723 0.00374783 0.00375843 0.00376903
0.00377951 0.00378195 0.00378439 0.00378682 0.00378926 0.0037917 0.00380481 0.00381793 0.00383104 0.00384416
0.00385727 0.00387049 0.00388371 0.00389692 0.00391014 0.00392335 0.00393667 0.00394999 0.0039633 0.00397662
0.00398994 0.00400336 0.00401678 0.00403019 0.00404361 0.00405703 0.00407056 0.00408408 0.0040976 0.00411112
0.00412464 0.00413827 0.0041519 0.00416552 0.00417915 0.00419278 0.00420651 0.00422024 0.00423397 0.0042477
0.00426144 0.00427528 0.00428911 0.00430295 0.00431679 0.00433063 0.00434457 0.00435852 0.00437246 0.00438641
0.00440036 0.00441441 0.00442847 0.00444252 0.00445657 0.00447063 0.00448479 0.00449896 0.00451312 0.00452728
0.00454145 0.00455572 0.00457 0.00458427 0.00459855 0.00461282 0.00462721 0.0046416 0.00465599 0.00467037
0.00468476 0.00469927 0.00471377 0.00472827 0.00474277 0.00475727 0.00477189 0.00478651 0.00480113 0.00481574
0.00483036 0.0048451 0.00485983 0.00487456 0.0048893 0.00490404 0.00491889 0.00493374 0.00494859 0.00496345
0.0049783 0.00499328 0.00500825 0.00502322 0.0050382 0.00505317 0.00506827 0.00508337 0.00509846 0.00511356
0.00512866 0.00514388 0.0051591 0.00517432 0.00518954 0.00520477 0.00522012 0.00523546 0.00525081 0.00526616
0.00528151 0.00529699 0.00531246 0.00532794 0.00534341 0.00535889 0.0053745 0.00539011 0.00540572 0.00542133
0.00543694 0.00545268 0.00546842 0.00548416 0.00549991 0.00551566 0.00553153 0.00554741 0.00556329 0.00557917
0.00559506 0.00560185 0.00560864 0.00561543 0.00562222 0.00562894 0.00563818 0.00564743 0.00565667 0.00566592
0.00567516 0.00569132 0.00570748 0.00572365 0.00573982 0.00575599 0.0057723 0.00578861 0.00580492 0.00582123
0.00583755 0.00585402 0.00587048 0.00588694 0.00590341 0.00591988 0.00593651 0.00595312 0.00596974 0.00598636
0.00600299 0.00601979 0.00603657 0.00605334 0.00607012 0.00608692 0.00610389 0.00612084 0.00613778 0.00615473
0.0061717 0.00618885 0.00620597 0.00622308 0.0062402 0.00625735 0.00627468 0.00629199 0.00630927 0.00632657
0.00634391 0.00636143 0.00637892 0.0063964 0.00641388 0.00643141 0.00644913 0.00646682 0.00648449 0.00650217
0.0065199 0.00653781 0.00655571 0.00657358 0.00659146 0.0066094 0.00662752 0.00664562 0.00666371 0.00668181
0.00669995 0.00671829 0.00673661 0.00675492 0.00677325 0.00679162 0.00681018 0.00682872 0.00684727 0.00686583
0.00688443 0.00690322 0.006922 0.00694078 0.00695959 0.00697842 0.00699746 0.00701647 0.00703551 0.00705457
0.00707365 0.00709293 0.00711221 0.0071315 0.00715083 0.00717017 0.0071897 0.00720925 0.00722881 0.0072484
0.00726801 0.00728332 0.00729864 0.00731398 0.00732933 0.00734479 0.00734928 0.00735377 0.00735826 0.00736275
0.00736725 0.00738732 0.00740742 0.00742755 0.0074477 0.00746788 0.00748825 0.00750864 0.00752906 0.00754951
0.00756999 0.00759066 0.00761136 0.00763208 0.00765283 0.00767361 0.0076946 0.0077156 0.00773663 0.00775769
0.00777879 0.00780009 0.00782142 0.00784277 0.00786414 0.00788556 0.0079072 0.00792885 0.00795052 0.00797223
0.00799397 0.00801594 0.00803793 0.00805993 0.00808197 0.00810405 0.00812636 0.00814868 0.00817102 0.0081934
0.00821583 0.00823847 0.00826114 0.00828383 0.00830655 0.00832932 0.00835231 0.00837533 0.00839837 0.00842144
0.00844455 0.0084679 0.00849126 0.00851465 0.00853807 0.00856154 0.00858523 0.00860895 0.00863269 0.00865647
0.00868029 0.00870433 0.0087284 0.0087525 0.00877663 0.0088008 0.0088252 0.00884962 0.00887407 0.00889855
0.00892307 0.00894782 0.00897259 0.0089974 0.00902223 0.0090471 0.00907219 0.00909732 0.00912247 0.00914765
0.00917286 0.0091983 0.00922377 0.00924927 0.0092748 0.00930035 0.00932614 0.00935195 0.00937779 0.00940365
0.00942954 0.00944777 0.00946601 0.00948426 0.00950252 0.00952023 0.00952827 0.00953631 0.00954435 0.0095524
0.00956045 0.0095869 0.00961339 0.00963989 0.00966643 0.00969299 0.00971978 0.00974659 0.00977343 0.00980029
0.00982718 0.00985429 0.00988143 0.0099086 0.00993578 0.00996299 0.00999044 0.0100179 0.0100454 0.0100729
0.0101004 0.0101282 0.010156 0.0101838 0.0102116 0.0102395 0.0102675 0.0102956 0.0103238 0.0103519
0.0103801 0.0104085 0.0104369 0.0104654 0.0104938 0.0105223 0.010551 0.0105798 0.0106085 0.0106373