/*--------------------------------*- C++ -*----------------------------------*\
  =========                 |
  \\      /  F ield         | OpenFOAM: The Open Source CFD Toolbox
   \\    /   O peration     | Website:  https://openfoam.org
    \\  /    A nd           | Version:  11
     \\/     M anipulation  |
\*---------------------------------------------------------------------------*/
FoamFile
{
    format      ascii;
    class       volScalarField;
    location    "1.9";
    object      gradTx;
}
// * * * * * * * * * * * * * * * * * * * * * * * * * * * * * * * * * * * * * //

dimensions      [0 -1 0 1 0 0 0];

internalField   nonuniform List<scalar> 
5712
(
-6739.17
-8613.99
-15992.6
-23363.3
-23835.1
-41137.6
-18308.7
-46640
-14908.5
-32758.9
-22297.2
-33922.3
-20003.1
-26239.5
-8798.32
-10063
-15051.8
-17245.7
-19437.7
-19274.4
-15284
-18874.3
-22523.2
-20198.5
-5488.39
-4133.08
-6824.83
-4596.54
-12725.2
-10192.1
-21716.5
-15745
-16818.6
-17488.5
-18688.7
-17859.3
-6584.48
-5142.05
-39777.6
-53247
-25700.6
-31549.2
-53455.8
-69366.5
-27646.4
-31652
-29509.1
-41679.6
-25758.4
-34133.2
-15091
-24306.8
-2905.12
-980.266
-3057.33
-1102.94
-8768.71
-3542.78
-12015.6
-4424.75
-8566.97
-3283.68
-9087.18
-2915.94
-15473.7
-4926.36
-19959.5
-6737.96
-24347.6
-12105
-22290.5
-13208.4
-22795.5
-14745.2
-20051.9
-15059
-17556.4
-10432.6
-17565.6
-8967.13
-23000.7
-14687.8
-23052.4
-14819
-21183.3
-15931.2
-21439.3
-15996.7
-18958.6
-12034.3
-19634.4
-12326.5
-17952
-7789.03
-8307.37
-10138.5
-18024.4
-8521.2
-7261.4
-10294.2
-19007.2
-7746.64
-9405.93
-10201.4
-19948
-7930.85
-10225.1
-10650.4
-3763.71
-4113.25
-1266.95
-2491.78
-11006.9
-11639.6
-4266.08
-7602.66
-14097.5
-15648.2
-6836.3
-11643.9
-12298.1
-998.474
-13703.1
-16979.3
-9262.62
-655.586
-7405.04
-12358.1
-19954.4
-13986
-10030.6
-12217.6
-10726.9
-9293.26
-14598.1
-3603.46
-2960.93
-2063.04
-2043.93
-10143.8
-8522.38
-6138.42
-5831.85
-12647.5
-10648
-8015.7
-7178.93
-5826.61
-7438.79
-12065.9
-12527.2
-14188
-12899.3
-16005
-13898.5
-10916.9
-9190.88
-9116.55
-9549.84
-12052.8
-9436.76
-11014
-7945.93
-9560.97
-6533.25
-11201.6
-7317.27
-10302.3
-4717.81
-8866.25
-9558.58
-12632.2
-16419
-13905.3
-20205.5
-7070.88
-7805.38
-9137.3
-2813.22
-7908.99
-15201.2
-7507.71
-16315.7
-13771.5
-24954.8
-14013.6
-26504.6
-5998.88
-13091.4
-5459.63
-13968.8
-8303.07
-6231.28
-11582.5
-4551.31
-8512.7
-1579.57
-10080.5
-663.788
-7989.16
-9383.17
-12139.1
-5593.15
-6617.75
-11078.7
-10751.1
-7348.72
-2343.69
-2058.97
-1829.39
-1685.57
-1541.55
-1371.91
-6926.66
-5646.73
-4861.12
-4467.57
-3567.36
-3077.26
-8448.22
-7242.2
-6669.92
-5370.32
-4345.52
-4090.56
-6505.72
-5711.86
-5555.6
-10897.5
-8210.98
-6882.74
-10321.5
-7558.33
-6092.78
-10823.2
-8478.21
-7342
-6800.8
-4443
-3444.75
-15677.3
-13466.9
-11593.9
-10123.5
-8358.83
-6885.01
-9047.12
-6967.37
-5506.49
-7642.17
-5466.75
-4151.77
-7933.55
-4386.53
-2442.13
-10446.3
-14133.4
-8275.42
-10675.6
-11289.1
-16563.3
-10097.2
-14674.1
-29.5989
-720.163
515.169
-99.2885
-2960.48
-3337.43
-1227.85
-655.843
-684.925
-2391.59
-9427.97
-13748.9
-6654.42
-3677.63
-9971.93
-9900.65
-15413.4
-16980.9
618.843
4177.61
-7597.16
-7159.62
-7229.41
-5574.96
-1019.27
-539.029
-668.601
-272.905
-1963.94
-174.579
365.723
867.415
-9232.22
-2359.49
-6260.69
-1612.99
-9076.09
-2758.08
-10990.1
-3525.46
-8865.33
-11946.5
-8193.42
-11647.4
-14306.8
-15113.5
-13649.2
-14304.4
-5632.06
-9380.52
-6507.7
-9322.39
-8694.64
-11217
-9591.49
-11328.7
-14221.1
-14045.3
-14889.4
-14099.9
-5685.66
-9074.44
-6187.92
-9238.79
195.18
-1280.65
-7344.02
-4542.01
756.813
-868.322
-6803.47
-4009.25
-266.827
-1544.54
-7508
-4954.19
-719.701
-1815.8
-7543.89
-5127.45
707.713
813.268
-158.232
-2.9705
2962.04
2991.56
244.1
416.225
656.289
2041.7
-1621.84
-954.703
10272.9
9631.65
5595.6
4319.69
494.008
10544.8
10802.7
4327.09
6407.7
898.516
-10315.5
-8057.47
-7113.22
-6640.22
-3979.23
817.802
750.006
49.1335
-46.0276
2588.18
2514.94
153.797
-78.2169
2612.1
3121.18
-621.791
-917.872
5133.08
2292.98
8137.15
5061.08
3648.19
2747.62
4132.21
3561.75
-359.277
-1266.94
-3788.06
-2387.67
-1037.33
1011.08
-970.654
775.075
-1637.54
-314.27
-1988.42
-2262.51
-5203.78
-4745.6
-9911.17
-5967.69
-8133.99
-8165.3
-12346.8
-9989.05
-7768.07
-4547.65
-3855.72
-3818.28
-11690.2
-5146.55
-12859.7
-5772.45
-13772.4
-10195.1
-14697.9
-10934.9
-9437.88
-3693.24
-10575.9
-4286.08
-6069.67
-4775.47
-4611.59
-6827.47
-3903.02
-4382.48
-3932.25
-6329
-7017
-4711.79
-5216.16
-7843.08
-8552.06
-5120.86
-6572.82
-8096.87
752.904
797.097
893.023
32.1831
280.069
312.9
2738.68
2883.96
2873.17
233.28
801.811
802.167
3475.59
3841.91
3927.25
-530.733
782.981
1051.71
1207.87
1025.85
723.053
3678.97
3742
3478.86
3008.47
3375.42
3310.42
3726.39
3970.7
3860.86
-1248.32
354.783
472.41
-3475.05
-1986.28
-1063.37
965.6
2048.52
2625.87
946.412
2321.38
2918.83
436.467
1918.19
2342.78
-2182.99
492.333
807.445
30.1795
38.4405
47.313
70.8697
264.04
146.842
120.775
114.849
17.2101
75.428
172.093
260.747
431.117
269.906
301.771
317.067
-206.895
29.9316
247.323
467.629
165.617
219.599
276.993
309.988
39.3818
131.167
129.864
125.701
-206.162
-7.3327
112.322
187.633
-907.89
-187.523
82.3056
273.575
-1418.97
-330.737
-10.8321
476.195
-622.956
-76.5286
164.576
413.172
-1162.49
-250.41
-28.5903
413.739
-971.433
-225.313
110.864
352.166
-1594.22
-394.424
-13.7868
561.748
-1087.15
-298.673
103.385
422.622
-1719.76
-452.054
-34.3944
587.203
11.982
22.9564
41.7299
89.6961
41.1165
31.7602
24.1997
81.7664
79.2319
78.5145
131.442
244.127
172.313
107.2
76.7632
221.826
-376.973
-45.458
140.662
414.472
-159.94
31.4363
99.2067
391.021
-58.1197
118.747
212.714
416.876
-1.37452
96.293
83.4582
394.217
-994.196
-189.99
9.87033
548.585
85.9269
44.3413
30.9978
62.8407
159.631
64.4854
33.3268
29.6584
178.168
105.618
66.5563
160.614
408.185
171.542
83.258
75.8499
112.315
118.074
91.6128
263.726
518.787
241.496
125.594
119.413
-73.7114
108.279
115.511
367.428
413.546
261.453
148.972
151.417
-507.684
16.9648
51.1087
348.551
132.182
225.664
135.349
153.838
-1154.3
-116.314
34.7215
400.933
-365.448
56.1947
83.1206
141.017
-885.064
-31.4592
45.6312
372.879
-207.532
132.186
113.364
153.994
-1401.55
-219.499
1.79222
435.607
-506.276
-17.8777
53.1197
131.533
-1587.17
-321.037
-43.7385
429.41
-634.857
-96.9939
13.7978
113.404
31.0863
13.3725
6.65917
3.76685
2.63993
40.8525
20.4352
10.9172
6.36031
4.49727
74.2999
31.1177
15.4497
8.7832
6.20465
92.3173
45.7655
24.5038
14.3594
10.194
98.6069
38.9949
19.117
10.8592
7.69502
124.046
60.7346
32.6243
19.2424
13.7204
64.8066
31.0498
16.6193
9.82671
7.01453
46.2842
18.3
8.9393
5.12553
3.61927
98.5883
39.8518
19.9579
11.5001
8.13021
47.1062
16.3339
7.68904
4.32719
3.0322
103.981
46.2739
24.2675
14.2129
10.1171
44.5433
16.2515
7.88935
4.47877
3.13554
76.0188
26.1011
12.0871
6.78111
4.76025
44.6933
14.6039
6.74073
3.79401
2.66678
66.5659
16.9882
6.31729
3.21664
2.16797
36.8067
8.05345
2.7275
1.32922
0.877451
25.9844
10.1118
4.83947
2.67476
1.85503
18.7965
8.01042
4.0094
2.24832
1.56515
63.5027
25.3316
12.4342
6.97498
4.88334
48.5376
21.0511
10.7188
6.06759
4.24002
89.1086
31.2689
14.7022
8.12001
5.66497
65.792
28.9389
14.9078
8.47283
5.96477
79.9259
35.5521
18.7222
10.9041
7.76481
44.663
21.9764
11.729
6.7596
4.81131
41.3447
19.5282
10.5409
6.21542
4.43076
-308.592
-442.376
-674.386
-1075.96
-655.195
-1332.36
-91.3276
-1044.83
572.849
-72.2133
-673.621
-1186.7
336.832
252.061
-1131
-1817.74
-1458.57
-2093.71
-646.975
-150.779
-34.0416
-7.53419
-1.89377
-209.649
-96.4569
-13.5604
-3.61759
-1.58837
-1986.71
-460.783
-104.386
-22.9882
-5.78589
-497.999
-135.518
-33.1094
-6.98113
-1.88903
-3333.4
-774.643
-175.954
-38.8764
-9.76342
-793.292
-230.294
-56.0464
-13.0339
-3.28222
-4462.66
-1040.04
-237.201
-52.5685
-13.218
-920.511
-289.236
-72.6648
-17.0874
-4.29268
-5559.37
-1308.38
-300.471
-66.9267
-16.899
-1013.78
-350.975
-90.7819
-21.6247
-5.49607
-6554.85
-1589.89
-370.184
-83.1595
-21.0945
-1591.37
-490.115
-121.484
-27.988
-7.03023
-6115.42
-1478.38
-342.722
-76.6693
-19.3858
-1225.84
-413.766
-105.848
-24.8911
-6.26229
-6751.59
-1639.75
-382.496
-86.0602
-21.8642
-1809.66
-538.495
-131.438
-29.8503
-7.4774
-7030.96
-1692.97
-395.431
-88.9272
-22.5792
-1880.08
-560.959
-138.114
-29.1454
-7.72299
-511.909
-7038.39
-6422.47
-2288.1
1667.18
2834.84
7891.65
11536.2
1786.85
8476.26
-1673.09
2598.2
2516.77
4989.5
9443.58
13370.4
14276.3
17926.1
5830.49
7552
-19916.8
-14372.3
-4653.21
-3605.07
-2585.96
-3682.48
-3459.69
-12209.3
-11575
-9915.97
-10651.6
-8739.86
-6277.91
-8223.03
-5405.22
-4579.68
-5548.78
-3809.93
-19799.2
-10239.8
-3578.07
-6118.5
-8363.87
-5820.44
-6322.98
-4694.21
-2833.73
-4003.3
-4277.89
-4630.72
-19577.9
-12808.7
-12155.3
-8763.94
-8675.31
-9142.79
-3872.6
-5092.42
-6516.4
-14123.1
-12151.3
-10136.9
-9282.71
-7891.54
-9312.27
-6359.07
-4903.43
-3729.39
-1899.97
-4099.89
-3390.94
-2533.66
-1574.47
-537.625
-3215.17
-2686.88
-2017.78
-1251.66
-424.693
-2293.62
-1903.38
-1418.51
-874.102
-295.368
-3289.15
-2750.67
-2064.2
-1277.87
-432.638
-3065.76
-2544.04
-1898.64
-1173.01
-397.369
-7807.71
-5939.97
-4620.19
-4241.4
-4529.63
-6294.94
-4600.11
-3254.2
-2682.19
-1864.12
-6184.59
-3712.73
-2559.76
-1769
-842.01
-5458.81
-3660.76
-2421.53
-1750.24
-1026.29
-4077.05
-2538.07
-1573.81
-1082.86
-527.641
-4958.65
-3693.39
-2542.65
-1514.53
-519.68
-5593.67
-3592.65
-2343.32
-1397.87
-520.221
-3547.66
-2123.86
-1273.21
-689.176
-232.114
-3766.74
-2900.09
-2036.03
-1214.64
-409.017
-4422.13
-3294.36
-2240.99
-1302.77
-432.045
-3167.82
-2459.75
-1732.55
-1030.09
-343.777
-13038.7
-9880.63
-7921.16
-6974.7
-6563.96
-7519.11
-5430.34
-3953.24
-2665.59
-1189.88
-2971.14
-2318.19
-1655.04
-1006.21
-345.939
-5169.03
-4116.29
-3003.07
-1862.74
-651.743
-6834.28
-5344.96
-3915.02
-2506.32
-944.19
-4939.51
-3965
-2925.82
-1838.42
-650.247
-5458.58
-4443.19
-3299.79
-2065.25
-719.089
-4075.19
-3321.44
-2454.84
-1519.15
-520.18
-2439.17
-1960.91
-1422.11
-861.514
-289.468
-3518.5
-2893.34
-2141.55
-1315.7
-444.76
-3631.82
-2886.28
-2081.37
-1263.44
-428.167
-4001.47
-3241.93
-2379.92
-1463.57
-499.085
-13550.8
-11159.2
-9248.97
-8159
-7022.76
-8866.58
-6325.87
-4839.68
-3558.14
-1796.72
-8931.44
-7041.41
-5325.83
-3903.35
-1881.11
-6870.9
-5192.57
-3886.04
-2627.38
-1064.42
-7214.36
-5746.16
-4271.43
-2757.72
-1031.67
-7111.35
-5333.59
-3966.01
-2669.29
-1068.11
-3315.04
-2671.5
-1965.22
-1221.77
-424.226
-4478.84
-3691.15
-2743.5
-1694.63
-575.477
-5593.28
-4522.22
-3338.14
-2080.26
-722.138
-5680.4
-11574.5
-12045
-33023.4
-11856.7
-44151.8
-6474.32
-15716.3
-11868.5
-9152.98
-19742
-16444.3
-11816.9
-11089.6
-22122.7
-17479
-4183.92
-3110.98
-8104.41
-5575.04
-9374.26
-7066.55
-25174.4
-18617.2
-15439.4
-11701.6
-15874.7
-9430.28
-1205.65
-3822.44
-41101.4
-53788
-24834.5
-31400.1
-54273.3
-69700.9
-26694.3
-31422.3
-30648.1
-42265.9
-24967.5
-34074.6
-16597.5
-25021.9
-2002.33
-528.653
-3519.21
-1201.18
-6811.51
-3045.33
-13821.9
-4993.85
-2991.92
-1700.93
-7488.19
-2355.92
-15492
-4869.76
-20139
-6787.24
-16705.8
-8663.53
-19283.9
-11449.6
-15175.7
-10861.1
-17069.7
-13200.3
-15436.4
-9030.99
-12204.5
-6315.42
-21838.2
-13896
-22761.6
-14602.4
-19995.5
-15123.7
-21121.6
-15776.9
-18177.6
-11386.7
-19449.5
-12147.6
-16930.3
-7489.6
-7382.06
-9765.06
-15144.9
-7660.47
-5540.49
-9610.66
-18732.6
-7669.49
-8974.38
-10018.4
-19915.2
-7923.76
-10103.3
-10597.2
-1151.44
-1039.05
-280.706
-1242.7
-4678.91
-4847.87
-2937.62
-5847.13
-2637.05
-3286.5
-4574.97
-8656.5
-12180.6
-9695.87
-9492.4
-11890
-7878.89
-7622.5
-8197.32
-7014.24
-13778.7
-12067.9
-11667.8
-9831.99
-6877.88
-5934.49
-13025.4
-1122.66
-841.323
-629.748
-706.627
-4353.54
-3451.92
-3699.07
-3260.49
-648.167
503.278
-4376.09
-3438.45
-10176.6
-10805
-9527.69
-8725.37
-7164.88
-5203.52
-9402.99
-7480.4
-8494.95
-6653.39
-11628.5
-11790.4
-9985.45
-7751.4
-7423.98
-4994.62
-6578.56
-4128.42
-9887
-5992.99
-9360.26
-5034.96
-8358.09
-9488.34
-13117.2
-17413.5
-13840.5
-20200
-6434.28
-7607.44
-7792.44
-2831.95
-7714.95
-15074.5
-7459.51
-16264.8
-13688.7
-25064.8
-13983
-26488.5
-5752.17
-12935.5
-5398.99
-13919.2
-7839.16
-6124.27
-11396.4
-4582.73
-7524.8
-1750.28
-9800.58
-1185.84
-7801.55
-9290.07
-12053.5
-5587.69
-6567.07
-11046.6
-10727
-7338.51
-826.29
-767.142
-566.7
-654.238
-2630.98
-1925.39
-2393.56
-2178.85
1072.48
568.66
-2802.27
-3104.41
-10681.6
-10110
-7739.8
-6654.62
-4140.1
-3474
-5871.08
-4834.98
-5597.11
-4080.27
-18322
-15984.5
-8034.67
-6791.8
-6144.72
-4632.84
-5112.79
-3248.07
-5489.23
-2353.12
-5617.16
-9245.52
-4915.74
-9387.23
-8412.69
-10487.4
-9461.07
-12879.4
-984.921
-706.833
-756.731
-638.836
-3629.76
-2570.15
-2959.75
-1634.79
-1345.38
-1629.12
-8336.04
-8941.39
-4669.19
-4213.51
-9407.82
-9764.45
-14543.8
-16734.8
403.989
3999.09
-7365.17
-7158.14
-7108.89
-5611.67
-1057.63
-951.425
-1151.84
-945.799
-1692.35
-1120.18
-557.046
-459.495
-8100.62
-3695.7
-6885.85
-3094.2
-9325.53
-3643.17
-11097.4
-3886.15
-5370.53
-10256
-6997.24
-10742.9
-8722.6
-11742.8
-11488.3
-12734
-5191
-9161.62
-4684.2
-9122.2
-8199.79
-10840.9
-9444.92
-11228.7
-13308.8
-13385.8
-14628.7
-13921.4
-5570.89
-9005.99
-6165.61
-9228.78
-377.943
-2081.56
-7747.81
-5179.65
-356.264
-2154.56
-7677.56
-4959.48
-694.328
-2107.5
-7730.61
-5343.72
-895.858
-2042.4
-7610.19
-5261.35
-1056.75
-1154.13
-985.623
-1058.63
-2041.53
-2078.06
-1370.26
-1473.87
-8315.57
-7614.74
-3792.14
-3793.91
-3680.08
-5170.44
-3973.52
-175.712
-1696.9
-1253.69
-1359.28
-3581.2
2733.87
-740.806
-13883.5
-11726.7
-10523.7
-9081.89
-5566.73
-1156.72
-1036.08
-1188.88
-1467.04
-2050.55
-1603.3
-1890.94
-2509.66
-7932.93
-7787.13
-4200.98
-5409.35
-5015.58
-6692.56
-3120.06
-5047.77
-4775.45
-5203.24
-1051.65
-1430.58
-2727.49
-4095.48
-9675.22
-7926.27
-7575.52
-5546.21
-6553.84
-4662.85
-5744.31
-4147.34
-4116.68
-4503.75
-8269.54
-8150.68
-11164.8
-7187.67
-10415.2
-11154.3
-13056.3
-10975.3
-9284.41
-5725.87
-6808.31
-6778.67
-12176.9
-5903.43
-12984.3
-5955.06
-13958.6
-10831.8
-14732.5
-11070.2
-10131.9
-4430.41
-10770.5
-4481.23
-7508.64
-5837.78
-5878.86
-8015.6
-6403.62
-6758.71
-5775.03
-8281.1
-7766.02
-5404.76
-5933.57
-8598.18
-8785.47
-5337.75
-6804.56
-8311.96
-826.999
-714.785
-1057.57
-784.549
-1376.58
-1647.96
-1540.35
-1146
-7582.61
-6640.56
-3597.82
-1611.37
-7853.4
-7439.75
-6077.16
-5458.99
-5035.43
-4324.78
-1778.27
-1849.66
-3897.89
-1778.08
-8625.78
-7383.23
-4851.84
-3871.01
-3731.38
-2401.03
-2705.21
-1234.13
-4047.63
-96.9784
-221.69
-100.865
-34.897
20.946
-205.468
-126.917
-41.6527
15.0285
-599.98
-263.449
-7.43335
162.042
-536.18
-306.322
-31.2035
112.506
-985.637
-391.887
33.1236
371.442
-966.733
-468.339
-153.682
19.6475
-667.68
-316.012
-154.568
-49.2645
-515.573
-209.74
-17.218
105.453
-1479.06
-516.752
-128.856
123.258
-1755.94
-499.966
-104.062
456.909
-1416.77
-495.029
-83.295
245.813
-1593.5
-449.531
-131.256
412.617
-1384.99
-476.821
-42.5533
264.361
-1820.68
-515.668
-87.6639
533.478
-1256.57
-405.314
37.2659
383.68
-1802.45
-498.26
-62.9541
576.452
-206.263
-83.112
-12.876
65.4032
-177.381
-63.2235
-27.4276
61.7834
-531.962
-216.996
-18.1328
171.38
-446.12
-166.32
-70.968
160.475
-1053.56
-365.444
-11.407
365.344
-956.852
-317.538
-84.8075
331.376
-1170.21
-429.063
-78.2031
273.772
-883.369
-299.726
-112.214
369.109
-1604.44
-448.616
-115.821
580.711
-128.459
-47.3392
-14.352
41.013
-59.856
-32.9057
-14.3171
0.419532
-386.809
-136.967
-60.9766
96.5013
-197.066
-98.4287
-52.1342
-6.7501
-686.774
-228.179
-93.1834
173.677
-398.943
-172.55
-81.4361
-5.40595
-1044.35
-328.709
-117.26
264.265
-695.654
-254.344
-108.215
-0.647291
-1374.87
-395.126
-187.779
221.213
-935.804
-307.103
-145.075
-19.6683
-1835.7
-512.049
-201.596
274.828
-925.331
-285.791
-120.109
10.2915
-1769.53
-501.933
-228.736
226.75
-1024.19
-318.136
-140.004
-9.52867
-1812.67
-470.962
-151.467
356.073
-829.388
-231.189
-75.4589
52.3489
-1721.72
-405.827
-96.0361
402.184
-735.712
-166.22
-28.4535
87.5796
-4.5644
-8.51142
-6.05886
-3.93825
-2.90529
-22.9688
-16.8783
-10.4951
-6.57162
-4.8037
-8.47208
-19.413
-13.8519
-8.95788
-6.56111
-49.8637
-37.4222
-23.2696
-14.5086
-10.5755
-2.9765
-23.3204
-16.9943
-11.002
-8.03657
-65.398
-49.2554
-30.4096
-18.8326
-13.6742
-31.9179
-24.7086
-15.3044
-9.45606
-6.86051
-3.30172
-10.3522
-7.49676
-4.81928
-3.55155
-13.235
-25.5055
-17.5591
-11.1688
-8.18073
5.34718
-8.44403
-6.57137
-4.2923
-3.16965
-38.6362
-35.5304
-22.3864
-13.9235
-10.117
-0.00940895
-9.82971
-7.05941
-4.54589
-3.35535
11.6612
-11.9313
-9.81917
-6.47099
-4.78137
8.32618
-6.7264
-5.50431
-3.6071
-2.6628
37.113
-0.500397
-3.80272
-2.93701
-2.29505
24.622
0.764896
-1.4958
-1.24285
-0.993771
0.597066
-5.94454
-4.51417
-2.99112
-2.22159
-4.86243
-5.94084
-3.9698
-2.56059
-1.89034
-5.90676
-16.9425
-11.9358
-7.74518
-5.70024
-17.4958
-16.9928
-10.9036
-6.94227
-5.10458
10.1356
-18.174
-13.9234
-9.19112
-6.78642
-29.5454
-24.9566
-15.5954
-9.86739
-7.20727
-35.8344
-29.6942
-18.2514
-11.3489
-8.22679
-33.9895
-21.0736
-12.4805
-7.77794
-5.62697
-25.675
-17.2618
-10.2127
-6.26532
-4.53784
-52.2981
-201.555
-81.8463
-511.889
-4.23274
-701.781
307.837
-619.885
590.361
-47.1468
-751.634
-1263.2
173.587
-9.30596
-1167.81
-1843.01
-1468.49
-2099.14
-614.457
-145.592
-33.0438
-7.32882
-1.84375
-161.552
-89.1595
-12.4425
-3.43482
-1.54335
-1898.52
-446.049
-101.491
-22.3884
-5.63891
-387.029
-118.623
-30.5051
-6.59062
-1.81925
-3198.86
-751.054
-171.249
-37.8989
-9.52496
-670.885
-210.75
-52.9034
-12.519
-3.18657
-4309.17
-1011.17
-231.287
-51.3287
-12.916
-843.576
-275.169
-70.1492
-16.6324
-4.20266
-5423.12
-1279.22
-294.134
-65.5624
-16.5631
-1008.25
-345.836
-89.3881
-21.3075
-5.42402
-6495.36
-1573.28
-366.072
-82.2107
-20.8517
-1604.44
-491.028
-121.376
-27.9205
-7.00756
-6026.55
-1454.75
-337.138
-75.4222
-19.0743
-1253.29
-414.35
-105.408
-24.7337
-6.2204
-6717.58
-1630.08
-380.034
-85.4803
-21.7133
-1813.02
-538.573
-131.341
-29.8132
-7.46586
-7019.76
-1689.79
-394.609
-88.7307
-22.5278
-1880.26
-560.832
-138.06
-29.1353
-7.71942
-515.337
-6951.55
-6137.77
-2205.96
-1577.78
-925.352
-3705.19
-2679.3
-6481.79
-6056.32
-3091.45
-2324.08
-365.653
-562.668
-969.592
-1580.11
-2376.2
-3287.09
-264.831
-571.493
-1191.93
-2081.65
-3146.01
-4237.96
-277.548
-127.916
-478.606
-327.038
-884.522
-732.875
-1481.66
-1373.68
-2137.45
-2052.29
-2812.26
-2534.37
-4088.07
-4634.09
-5058.81
-7571.65
-8509.25
-9394.77
-5157.96
-5689.87
-5677.8
-5196.14
-4463.97
-3914.51
-330.237
-279.662
-212.322
-132.511
-45.0319
-507.805
-429.677
-325.947
-203.297
-69.0648
-874.319
-739.086
-560.151
-349.146
-118.577
-1423.13
-1201.42
-909.47
-566.43
-192.303
-2136.19
-1799.84
-1360.23
-846.347
-287.235
-2946.05
-2474.53
-1865.79
-1159.67
-393.537
-239.041
-202.327
-153.531
-95.7779
-32.5383
-515.471
-435.893
-330.469
-206.027
-69.975
-1074.22
-907.55
-687.487
-428.376
-145.462
-1873.77
-1580.93
-1196.23
-744.864
-252.867
-2826.49
-2380.08
-1798.12
-1118.74
-379.717
-3796.7
-3188.1
-2403.79
-1494.45
-507.292
-250.787
-212.45
-161.345
-100.724
-34.2406
-115.59
-97.9264
-74.3737
-46.4311
-15.7845
-432.144
-365.817
-277.618
-173.209
-58.8585
-295.34
-250.065
-189.812
-118.442
-40.2501
-798.038
-674.978
-511.819
-319.132
-108.406
-661.372
-559.541
-424.389
-264.658
-89.9066
-1335.22
-1127.85
-854.167
-532.123
-180.674
-1238.1
-1045.95
-792.195
-493.505
-167.553
-1922.66
-1620.77
-1225.26
-762.375
-258.706
-1846.19
-1556.26
-1176.23
-731.628
-248.205
-2521.21
-2117.76
-1596.22
-991.484
-336.269
-2272
-1907.73
-1436.72
-891.459
-302.091
-3645.2
-3047.2
-2290.7
-1423.03
-483.435
-4094.81
-3397.08
-2544.56
-1583.17
-540.462
-4395.94
-3601.97
-2688.5
-1685.22
-584.588
-6369.27
-5118.13
-3822.84
-2457.58
-898.254
-6759.21
-5279.84
-3971.73
-2682.82
-1098.06
-7142.07
-5472.47
-4142.15
-2903.08
-1285.17
-4601.35
-3848.74
-2895.11
-1799.44
-611.418
-5043.57
-4195.95
-3148.33
-1958.81
-667.591
-4982.75
-4113.79
-3079.32
-1923.27
-660.624
-4481.64
-3657.28
-2733.73
-1725.79
-605.096
-3721.15
-2976.46
-2227.42
-1443.24
-533.577
-3143.63
-2462.2
-1846.86
-1232.72
-483.145
-384.288
-620.384
-1071.63
-1734.04
-2592.35
-3557.02
-290.616
-651.481
-1331.78
-2284.79
-3403.47
-4516.48
-295.221
-142.752
-533.768
-374.681
-984.034
-822.944
-1636.88
-1521.32
-2369.47
-2315.73
-3119.26
-2939
-4375.42
-4907.48
-5314.27
-7734.23
-8583.83
-9418
-5402.43
-5844.94
-5719.59
-5141.55
-4375.38
-3873.02
-347.171
-294.112
-223.382
-139.458
-47.4013
-560.293
-474.503
-360.284
-224.883
-76.4311
-967.23
-818.572
-621.149
-387.552
-131.693
-1563.65
-1321.99
-1002.29
-625.028
-212.345
-2334.21
-1970.5
-1492.21
-929.977
-315.901
-3194.94
-2690.69
-2034.27
-1267.13
-430.508
-262.48
-222.323
-168.829
-105.386
-35.8162
-588.193
-497.984
-378.017
-235.912
-80.1714
-1201.56
-1016.49
-771.083
-481.009
-163.438
-2059.2
-1740.06
-1318.75
-822.214
-279.325
-3062.41
-2583.48
-1955.49
-1218.5
-413.917
-4053.53
-3411.21
-2577.75
-1605.44
-545.488
-266.825
-226.123
-171.799
-107.287
-36.4778
-129.052
-109.394
-83.1347
-51.9275
-17.6585
-482.276
-408.596
-310.358
-193.778
-65.8755
-338.61
-286.96
-218.026
-136.156
-46.2906
-888.602
-752.402
-571.19
-356.491
-121.161
-743.321
-629.581
-478.083
-298.436
-101.437
-1476.89
-1249.39
-947.714
-591.164
-200.865
-1373
-1161.84
-881.508
-549.936
-186.863
-2135.14
-1803.81
-1366.73
-851.971
-289.409
-2087.53
-1764.24
-1337.07
-833.531
-283.134
-2804.18
-2363.45
-1787.64
-1113.5
-378.222
-2644.17
-2230.03
-1687.2
-1050.78
-356.807
-3913.21
-3283.05
-2476.98
-1543.14
-525.036
-4355.03
-3631.17
-2733.48
-1707.19
-583.938
-4647.35
-3835.6
-2882.86
-1816.23
-631.509
-6552.37
-5306.85
-3994.55
-2583.1
-947.003
-6864.95
-5399.87
-4090.15
-2777.73
-1140.09
-7180.71
-5518.01
-4188.7
-2942.13
-1303.45
-4829.47
-4049.64
-3053.96
-1901.96
-646.949
-5192.64
-4331.54
-3258.97
-2032.09
-693.409
-5030.48
-4164.3
-3126.02
-1957.23
-673.329
-4442.64
-3634.1
-2724.45
-1725.25
-606.486
-3649.93
-2923.56
-2193.79
-1427.14
-530.069
-3109.78
-2436.29
-1829.73
-1224.13
-481.166
-19859.8
-14429.1
-5034.89
-4011.74
-3063.28
-4273.71
-3953.78
-13014.9
-14596.6
-11535.3
-13308.5
-7842
-11234.4
-5983.67
-6252.25
-4554.81
-20510.6
-11277
-4311.59
-7053.76
-9241.87
-6343.15
-6993.24
-5290.35
-3251.28
-4686.33
-5236.91
-5364.46
-19472.2
-13010.1
-12823.3
-9165.22
-9134.4
-9688.89
-4560.13
-5748.33
-7170.02
-14140.6
-12227.6
-10251.9
-9438.06
-8036.88
-9406.36
-6456.24
-4997.41
-3807.62
-1934.03
-4465.21
-3721.37
-2801.51
-1750.85
-599.573
-3593.55
-3018.94
-2279.26
-1419.77
-482.8
-2741.25
-2299.57
-1732.97
-1077.47
-365.881
-3837.2
-3229.63
-2439.82
-1518.54
-515.646
-3531.21
-2957.88
-2228.38
-1386.83
-471.618
-9511.91
-7896.74
-6487.02
-5803.74
-5663.39
-10844.9
-9332.8
-7529.7
-5977.09
-3507.28
-8303.91
-5833.63
-4382.51
-3038.61
-1306.55
-9870.4
-8134.14
-6357.13
-4640.83
-2224.13
-6625.29
-5307.72
-3910.64
-2439.1
-848.401
-8806.87
-6561.68
-4783.85
-3028.6
-1104.04
-5179.83
-4222.69
-3131.13
-1944.76
-667.02
-5391.12
-4381.13
-3243.02
-2014.25
-691.662
-3977.56
-3263.91
-2426.08
-1503.84
-512.982
-14407
-11497.5
-9521.2
-8349.43
-7530.88
-8758.21
-6698.99
-5077.99
-3471.22
-1510.94
-3723.46
-3035.27
-2258.04
-1412.65
-490.64
-6113.31
-5009.12
-3751.94
-2368.51
-833.052
-7782.4
-6283.83
-4731.78
-3077.76
-1159.07
-5476.5
-4481.02
-3365.54
-2140.02
-760.007
-6113.39
-5046.73
-3797.37
-2397.88
-837.54
-4657.6
-3858.16
-2896.38
-1812.85
-623.952
-2871.14
-2379.09
-1778.73
-1103.77
-375.709
-4171.28
-3482.58
-2617.56
-1627.67
-553.781
-4583.93
-3772.85
-2814.46
-1751.74
-600.522
-4721.81
-3908.05
-2928.77
-1828.61
-627.935
-13690.9
-11451.1
-9635.23
-8599.28
-7462.63
-9158.23
-6629.52
-5127.84
-3789.19
-1900.8
-9864.46
-8027.31
-6253.97
-4626.11
-2209.18
-7334.17
-5669.43
-4317.81
-2945.34
-1188.03
-7720.54
-6258.78
-4728.17
-3085.15
-1157.63
-7750.58
-5980.49
-4550.69
-3097.02
-1237.19
-3984.01
-3285.04
-2467.91
-1555.52
-542.319
-5105.53
-4256.69
-3200.39
-1994.2
-680.227
-6249.22
-5141.28
-3857.93
-2431.98
-848.181
-471.07
-1345.85
-2148.99
-2913.97
-3644.39
-4328.8
-2671.86
-7172.78
-6799.27
-2609.53
-9107.64
-7640.48
-9083.62
-10045
-2425.96
-1565.67
-5635.8
-3249.11
-10692.5
-7597.83
251.239
-2165.36
-5971.69
-5579.1
-2098.53
-7738.49
-6219.47
-7606.26
-8550.26
-2007.83
-920.744
-4843.52
-1686.96
-8842.28
-4541.11
1604.92
-1578.46
-4531.33
-4217.73
-1533.37
-6099.62
-3716.03
-6151.9
-6795.5
-1511.84
-838.918
-3424.45
-1757.81
-7038.75
-1782.7
1745.48
-1158.55
-3496.89
-3319.33
-1166.02
-4652.69
-2244.28
-5093.49
-5975.9
-1134.88
-882.688
-2502.29
-1779.87
-6177.64
-344.734
1312.86
-933.381
-2957.52
-2851.45
-980.165
-3725.72
-1853.9
-4556.31
-5789.31
-895.719
-963.26
-1793.48
-1712.11
-5380.87
-130.528
154.066
-822.564
-2632.88
-2613.63
-886.011
-3443.65
-2120.72
-4213.02
-5530.75
-689.608
-755.915
-1475.69
-1674.61
-5294.94
-954.026
-477.586
-1393.67
-3404.91
-5002.28
-1935.74
-5513.68
-9646.16
-7325.34
-10549
-1007.42
-707.677
-3884.62
-2384.97
-1145.28
-9219.5
-4812.33
-1297.31
-3176.35
-4396.78
-1682.64
-5100.16
-8726.64
-6614.76
-8987.01
-1030.75
-625.442
-4023.54
-2255.86
-325.458
-9054.19
-3616.54
-1142.17
-2806.1
-3605.41
-1353.09
-4649.44
-7812.91
-5634.43
-7913.57
-915.955
-718.443
-3445.08
-2350.38
-548.777
-7324.12
-3457.43
-989.444
-2534.11
-2995.88
-1100.44
-4345.47
-7104.25
-5021.91
-7194.11
-842.083
-725.208
-3190.69
-2442.98
-362.308
-6800.04
-3483.52
-895.808
-2283.64
-2663.36
-963.733
-3951.66
-6527.76
-4586.52
-6842.57
-789.94
-781.048
-2904.27
-2644.75
-512.076
-6531.57
-3550.99
-832.943
-2041.37
-2471.57
-887.377
-3651.75
-6446.68
-4263.22
-6620.42
-821.304
-907.222
-2591.53
-2519.73
-768.35
-6684.5
-3933.24
6127.89
7737.58
16029.2
23440.9
23866.4
41122.8
18317.3
46643
14921.6
32764.8
22342.7
33924.7
20018.1
26322.6
7564.53
8580.58
15064.6
17248.7
19432.7
19271.9
15285.6
18872.2
22520.4
20195.5
5061.69
3847.01
6209.74
4196.73
12726.9
10164.3
21766.8
15767.9
16795.2
17493.2
18680.7
17860.1
6583.09
5120.76
39783.2
53254
25701.2
31551.3
53462.6
69374.4
27646.2
31653
29513.3
41685.6
25757.9
34136
15096.7
24312.3
2740.94
940.431
2810.29
1025.26
8739.78
3529.02
12020.5
4425.84
8561.58
3280.47
9074.5
2911
15474.6
4926.37
19962.4
6738.92
24347.3
12104.1
22289
13207.1
22792.8
14743
20049.4
15057
17553.9
10431.4
17564.9
8966.09
23000.2
14686.9
23052.4
14818.2
21181.8
15929.8
21438.5
15995.5
18958.2
12033.6
19634.8
12325.9
17948.3
7787.82
8306.15
10138.3
18021.7
8520.03
7259.99
10293.9
19007.1
7746.67
9405.39
10201.6
19949.3
7931.37
10224.9
10650.6
3537.74
3823.5
1216.53
2341.85
10956.7
11596.9
4242.68
7568.42
14089
15639.1
6832.34
11637.3
12298.2
999.348
13702.3
16976
9261.11
656.533
7405.32
12357.4
19950.4
13983.7
10029.2
12216.6
10725.6
9291.17
14597.4
3287.86
2673.36
1861.06
1868.91
10169.2
8544.82
6193.72
5866.58
12640.2
10645.1
8012.82
7178.21
5826.8
7438.72
12065.8
12526.9
14186.9
12898.4
16001.5
13896.7
10915.8
9190.74
9115.92
9549.55
12052.2
9436.53
11013.1
7945.52
9559.58
6532.67
11201.4
7317.39
10301.7
4717.73
8865.42
9558.33
12631.1
16418.4
13903.9
20204.7
7070.27
7805.32
9136.72
2813.19
7908.22
15201
7506.97
16315.5
13770.3
24954
14012.5
26503.8
5998.38
13091.4
5459.16
13968.9
8302.83
6231.37
11582.9
4551.54
8512.2
1579.61
10080.7
664.059
7989.1
9383.35
12139.6
5593.39
6617.65
11078.9
10751.5
7349.02
2081.59
1844.2
1664.7
1540.2
1419.3
1276.01
6955.74
5657.85
4861.68
4498.45
3581.35
3080.7
8448.36
7243.07
6670.62
5371.31
4347.82
4092.82
6505.73
5712.03
5555.81
10897.4
8211.18
6883.01
10321.2
7558.57
6093.16
10823
8478.85
7342.77
6801.23
4444.08
3445.94
15677.1
13467.1
11594.3
10123.3
8358.9
6885.23
9046.95
6967.49
5506.77
7642.02
5466.93
4152.11
7933.64
4386.82
2442.54
10420.5
14117.1
8247.24
10661.4
11277.1
16554.1
10082.7
14666.1
69.6453
626.348
-431.065
57.2991
2959.86
3411.11
1228.68
735.488
659.58
2365.89
9411.63
13728.6
6636.98
3664.52
9964.72
9897.47
15409.1
16979
-624.742
-4179.51
7587.76
7155.25
7223.97
5572.89
889.802
489.72
565.067
235.531
2019.45
185.905
-304.974
-850.789
9221.24
2357.95
6254.11
1613
9069.38
2756.48
10986.6
3524.35
8855.42
11941.4
8185.64
11643.3
14300
15109.5
13643.9
14301.3
5624.99
9376.73
6499.02
9317.86
8689.89
11214.1
9588.9
11326.8
14217.8
14043
14887.4
14098.3
5681.26
9071.73
6185.6
9236.98
-198.964
1280.12
7341.29
4540.96
-761.2
867.616
6800.49
4008.19
263.931
1543.81
7505.87
4953.23
718.159
1815.29
7542.42
5126.71
-671.289
-766.523
144.516
-4.334
-2937.16
-2965.41
-239.921
-405.844
-654.95
-2040.25
1621.39
954.434
-10272.9
-9630.83
-5595.89
-4319.86
-494.123
-10543.7
-10801.5
-4327.03
-6406.47
-898.426
10313.5
8054.38
7110.17
6637.78
3978.21
-781.824
-712.548
-67.9388
21.6566
-2559.62
-2490.52
-131.653
98.4417
-2610.58
-3118.89
621.56
917.36
-5132.87
-2293
-8136.85
-5061.02
-3648.48
-2747.69
-4131.67
-3560.97
359.026
1266.52
3787.09
2387.31
1035.95
-1011.47
969.441
-775.367
1636.74
314.109
1987.9
2262.06
5201.62
4744.58
9908.91
5966.51
8132.28
8164.41
12344.9
9987.97
7765.99
4546.61
3853.81
3817.34
11688.4
5145.53
12858.2
5771.61
13770.8
10194.1
14696.6
10934
9436.16
3692.35
10574.5
4285.35
6068.12
4774.56
4610.67
6826.55
3901.58
4381.63
3931.38
6328.1
7015.69
4710.95
5215.31
7842.15
8550.94
5120.14
6572.04
8096.05
-717.565
-743.45
-831.296
-54.3545
-276.394
-303.879
-2713.3
-2869.74
-2863.24
-209.667
-788.996
-793.315
-3472.9
-3839.49
-3925.54
529.687
-782.541
-1051.39
-1207.83
-1025.74
-722.939
-3678.91
-3741.8
-3478.67
-3008.28
-3375.07
-3310.1
-3725.4
-3969.55
-3859.88
1247.76
-354.744
-472.259
3474.82
1986.35
1063.55
-965.744
-2048.38
-2625.63
-946.467
-2321.13
-2918.52
-436.398
-1917.83
-2342.37
2182.54
-492.354
-807.372
-25.3284
-34.0129
-42.458
-63.6056
-245.889
-136.017
-111.791
-105.731
-16.6671
-75.1173
-172.284
-261.901
-426.588
-268.19
-300.482
-316.222
206.87
-29.9277
-247.266
-467.477
-165.068
-219.423
-276.932
-309.91
-39.4132
-131.151
-129.844
-125.66
206.107
7.33791
-112.303
-187.602
907.848
187.58
-82.239
-273.469
1418.77
330.742
10.8813
-476.084
622.869
76.593
-164.462
-412.963
1162.31
250.429
28.6498
-413.606
971.312
225.339
-110.81
-352.086
1594.01
394.422
13.8295