/*--------------------------------*- C++ -*----------------------------------*\
  =========                 |
  \\      /  F ield         | OpenFOAM: The Open Source CFD Toolbox
   \\    /   O peration     | Website:  https://openfoam.org
    \\  /    A nd           | Version:  11
     \\/     M anipulation  |
\*---------------------------------------------------------------------------*/
FoamFile
{
    format      ascii;
    class       volScalarField;
    location    "1.9";
    object      gradTz;
}
// * * * * * * * * * * * * * * * * * * * * * * * * * * * * * * * * * * * * * //

dimensions      [0 -1 0 1 0 0 0];

internalField   nonuniform List<scalar> 
5712
(
7383.62
24252.2
5863.82
24866
4400.55
25707.7
6939.19
39598.4
8524.91
54438.4
8465.1
39668.4
8169.2
32933.6
8491.05
29432.4
5138.97
3185.77
13738.7
8161.44
5031.49
2715.01
15022.7
7460.07
5624.46
4085.21
18030.3
12707
4254.62
3071
17732.8
12902.3
9980.09
4228.35
8626.7
3849.09
3975.74
9319.36
34418.4
9323.38
12331.8
4163.23
44306.5
12021.7
11533.6
3975.53
24601.2
7631.88
12630.8
4402.56
21409.4
6804.83
6131.29
3039.98
8961.04
3496.07
6636.92
3586.42
8735.25
3357.22
8402.06
4792.09
7530.02
3277.51
11099.8
3993.64
3816.36
1333.83
12583.1
8745.77
7770.17
5692.08
13995.1
11523.2
7642.06
6613.93
7388.17
5012.36
10448.4
7022.39
5110.45
3762.32
2584.02
2123.25
4917.78
4248.45
2529.64
2443.6
4919.02
3237.29
2510.46
1615.87
6619.44
3603.3
4981.74
5993.32
9087.39
6469.06
7237
10272.8
4368.87
2072.91
2932.88
3426.69
2162.15
900.282
1263.54
1269.27
8126.34
14562.7
5503.76
16247.5
9512.88
14251.4
6762.91
16997.7
10789.3
12893
8695.88
16569
12592.9
14919.5
9556.89
9237.03
10084.2
14917.6
13896.7
13742.4
14143.5
20360.9
12130.3
9422.75
8215.72
9214.43
14381.9
16874.6
15079.1
19557.7
18822.4
15452.8
14330
19307.7
18423.4
13371.8
13052.5
18099.1
17745.7
10905.7
8577.77
10257.4
8964.7
11247
10102.4
12125.2
11677
16635.3
17070.5
10186.6
8858.24
9801.73
9484.92
10159.1
10837.3
11452.3
12925.8
14919.7
17330.3
8441.5
6634.09
5783.36
7341.92
11335.8
13770.9
7847.97
12388.1
4928.45
6458.17
7357.67
6076.72
1416.57
4867.57
723.903
1744.65
4005.39
8315.31
1469.96
2875.72
700.999
4146.39
381.254
1451.11
4856.65
4930.16
5521.59
3453.29
7698.54
6178.03
9052.28
6276.08
1162.26
2701.39
2743.69
1576.19
1521.81
1967.91
2146.42
1623.95
12025.6
7313.19
2305.91
13603
7817.65
2561.14
11537.7
7237.68
2446.53
13386.9
7827.09
2559.72
10614.7
6649.08
2187.6
13057.4
7862.92
2628.09
5650.93
3091.91
847.193
7288.16
4806.69
1667.3
8728.29
6017.11
2074.5
10112.6
6555.64
2178.13
12927.6
8074.27
2821.99
6684.84
3791.89
1214.32
6897.22
4970.13
1876.85
8217.57
6067.67
2231.32
10253.1
7199.3
2577.86
13081.6
8181.32
2906.34
299.548
2021.78
2861.27
4126.92
2209.62
2531.7
5544.64
5254.32
603.541
1029.05
644.328
1071.71
487.259
1413.45
869.76
1853.5
3225.11
1576.5
4079.18
2359.44
2166.36
3782.8
3415.09
909.287
6143.48
1479.3
-1963.1
679.253
1765.75
1302.01
1213.46
1102.73
9779.05
4445.05
2669.5
1645.62
9932.28
4618.75
3365.01
2085.34
9804.19
4968.08
4876.33
3403.37
3495.33
2505.18
1698.82
1625.99
12677.6
11260.6
5963.24
6184.27
13686.9
12839
6749.46
6800.83
5281.28
5431.76
10863.1
9065.06
3548.83
3716.61
1968.49
2248.76
4150.44
4124.72
2264.23
2431.76
3080.47
3327.71
1711.88
2125.02
4692.96
3265.74
4676.94
3298.81
7317.01
4299.69
6968.3
4563.61
2818.69
2364.78
2958.31
2130.96
1561.5
1476.21
1879.44
1250.03
11552.7
7972.24
5789.45
5837.84
11506.4
8181.74
5819.24
5810.66
11959.1
8542.63
5902.61
5656.31
13907.4
15059
12655.7
8448.14
4776.39
14268.7
13157.7
12195
10052.1
6456.65
13375.1
12052.1
9613.09
7387.69
4595.31
6704.82
5915.59
6231.21
7072.19
6943.52
5839.48
6308.2
6998.97
7289.66
5854.5
6395.38
6935.5
10764.1
7604.89
9997.26
6953.32
7844.21
6327.95
7318.43
6245.67
5950.42
6898.21
8946.11
7767.56
7881.83
6877.53
6708.56
6077.37
5901.15
5848.78
4679.65
6558.23
7046.16
4765.24
4682.12
2802.61
9239.09
7122.34
6419.73
5171.54
3811.27
2286.3
5530.87
4080.66
4726.42
2234.63
1721.85
989.692
5018.49
3633.8
1743.88
1446.2
4080.05
1817.01
1599.32
839.267
3157.04
2895.13
2760.85
4037.35
4395.6
4141.59
3515.72
5161.37
3208.22
2069.05
2008.38
2747.4
963.002
462.542
199.368
505.035
4081.11
1703.43
503.175
4679.63
1215.01
323.852
4149.88
1847.84
567.749
4683.41
1267.79
354.744
3910.7
1847.42
478.98
4624.38
1296.8
304.938
4708.26
2398.93
543.457
4217.34
2038.31
483.802
4101.92
1964.99
532.49
4038.9
1889.88
402.696
4628.97
1280.7
193.155
5942.7
2999.19
808.264
5313.01
2639.49
723.587
4801.31
2368.95
688.997
4520.05
1933.94
476.893
5023
1204.09
295.144
1723.61
615.873
126.776
-172.42
718.824
270.721
75.1138
-32.8087
1826.04
674.757
177.877
-102.834
913.509
375.236
181.22
83.7634
1959.91
749.741
267.189
6.74814
1561.65
718.718
272.414
58.6236
1187.57
658.13
219.491
-19.6571
1105.6
712.208
401.722
231.606
1620.75
711.915
211.702
-163.444
1382.36
599.576
259.611
-159.397
1914.74
737.814
239.736
-109.217
1727.93
669.242
266.967
-259.707
1298.11
658.99
254.964
-54.8795
1059.89
527.197
277.252
1.75674
955.296
576.465
333.677
199.616
728.61
442.554
289.901
166.372
2185.42
741.537
128.474
-344.759
2149.66
681.201
186.971
-467.624
2184.01
752.533
147.438
-328.569
2084.19
663.107
194.228
-453.811
2143.35
755.44
222.081
-227.969
1948.57
628.219
236.822
-367.378
1881.71
698.925
302.646
-15.3275
2138.43
703.866
331.098
-427.553
1677.35
624.322
301.205
-98.0447
1691.84
479.028
166.322
-312.734
670.822
173.922
44.7572
-63.3011
1753.19
512.731
184.091
-297.524
701.339
188.602
56.8767
-50.2513
1793.27
551.027
225.429
-259.014
718.199
205.564
72.4844
-34.5437
1621.03
520.388
258.439
-201.357
700.437
212.873
99.0959
-6.43384
1487.97
518.128
277.768
-112.939
630.745
225.106
134.246
31.3844
1034.85
415.056
200.309
-35.6669
594.918
291.698
173.48
89.7434
1196.32
423.592
209.94
-83.5709
601.271
255.446
154.745
61.3556
833.12
399.043
215.653
32.1908
531.588
304.217
187.497
117.472
587.258
359.053
239.104
144.432
441.066
299.742
204.598
151.111
-15.5893
6.13526
6.16974
4.18069
3.08791
-2.31437
4.20819
3.49134
2.31259
1.70837
7.82421
18.0756
12.6737
8.03673
5.83336
22.9803
17.7541
10.9996
6.77051
4.8756
33.2234
32.6361
20.9658
13.0957
9.48632
93.0364
60.3111
35.7724
21.8353
15.6948
111.094
70.9612
42.1031
25.7741
18.5914
161.894
93.8793
54.0421
32.7691
23.5983
57.9385
47.6535
29.6138
18.3414
13.2056
62.4204
45.0319
27.342
16.8911
12.1693
40.1741
38.3303
24.2534
15.1545
10.9683
74.8776
47.0363
27.5102
16.8508
12.0964
75.5799
56.789
34.8712
21.5622
15.5706
83.9907
53.8483
31.9684
19.6253
14.1461
128.6
75.6068
43.6442
26.491
19.0709
107.553
62.4346
35.9831
21.8422
15.6991
-28.7882
3.01321
4.56346
3.21068
2.39196
-15.7213
0.929444
1.79181
1.28595
0.971592
-13.3901
10.5311
8.59036
5.59099
4.10209
-10.2215
3.59242
3.19209
2.09866
1.55653
5.99723
19.281
13.1914
8.35239
6.11388
10.6695
12.4485
7.72749
4.71725
3.43108
49.2243
38.0693
23.0931
14.3128
10.4092
33.0398
24.1055
14.2689
8.76205
6.37097
91.4715
50.0835
28.295
17.1142
12.2787
1747.96
3990.65
1775.57
3955.99
1951.85
3931.11
2322.08
4087.33
2415.18
4205.77
989.552
1500.85
1603.65
2520.94
536.187
743.976
196.874
253.548
9064.94
2166.91
497.107
111.159
27.6538
2473.66
666.484
177.386
40.3806
8.79168
8952.49
2122.94
486.602
107.908
27.0452
2518.41
742.968
183.257
42.6499
10.6066
8537.9
2010.97
459.283
101.733
25.5302
2444.52
718.172
176.655
40.9069
10.2101
7806.44
1822.81
415.126
91.8869
23.0694
2373.04
682.556
165.735
38.0409
9.44479
6524.26
1515.9
345.465
76.5815
19.2535
2238.36
626.547
150.501
34.3322
8.49983
3076.23
747.495
173.309
38.7081
9.74985
1091.96
310.516
74.0239
16.5993
4.10093
4591.18
1099.93
253.033
56.2326
14.1396
1606.33
450.877
108.361
24.7055
6.15771
1803.91
441.803
102.916
23.1003
5.83036
612.602
181.119
42.9463
9.62951
2.4019
623.788
151.9
35.478
7.99321
2.01939
246.27
66.2931
14.6134
4.08612
0.802448
55.8292
464.057
4621.88
-884.843
760.555
815.063
2378.26
3046.33
1923.64
3605
3036.79
4681.99
3666.55
4549.36
1903.24
2562.17
2025.53
2402.92
1052.9
1094.78
2316.92
1678.46
563.331
-383.013
-675.639
-808.238
-195.333
13182.6
3347.74
4403.71
2919.7
-52.6227
77.7291
3068.47
-1251.24
-651.833
-937.762
-492.832
7229.54
3860.38
1435.68
1144.15
3711.21
2105.76
700.16
1432.68
-1352.56
-740.585
781.402
639.733
8776.8
4321.17
5423.1
2901.41
4101.27
4593.99
1606.87
-770.53
1020.14
1627.66
1317.8
1121.94
993.157
743.146
1322.32
1057.93
821.071
573.266
244.31
493.663
408.492
308.407
195.031
67.6003
-342.045
-285.338
-212.85
-130.732
-44.0146
-603.493
-503.774
-376.363
-231.581
-78.0305
-722.931
-604.577
-452.59
-278.982
-94.0964
-169.651
-134.999
-93.8673
-53.0752
-16.7066
9451.5
8059.3
6745.97
6029.14
5442.04
2903.84
2484.21
2249.88
1826.06
941.768
3348.58
2634.67
2166.7
1653.01
840.704
2218.66
1746.7
1474
1107.91
456.477
64.6667
77.4304
162.226
160.997
77.1644
149.043
202.353
217.619
176.487
72.2144
2581.53
2127.97
1649.59
1129.2
456.606
-747.466
-357.416
-136.202
-21.2526
7.31797
-516.253
-364.533
-218.055
-102.295
-25.9983
-653.705
-399.731
-202.109
-76.646
-15.1716
-447.479
-372.619
-272.663
-162.547
-52.9979
5300.34
4716.68
4005.79
3612.67
3273.67
2955.49
2309.82
1878.65
1394.15
663.833
1303.94
1150.24
948.631
664.106
257.764
999.886
844.574
667.371
449.976
168.702
3081.73
2468.15
1860.8
1222.09
465.299
1854.38
1560.07
1212.4
796.146
286.257
608.031
505.639
389.884
255.042
92.1601
1258.62
1046.93
796.344
508.081
177.826
-1172.29
-945.027
-681.877
-407.767
-134.917
-651.874
-532.07
-385.748
-229.828
-75.528
692.693
589.224
464.979
310.14
113.378
569.81
486.763
384.81
255.868
92.5985
5636.25
4068.07
3438.25
3088.08
2629.34
3284.85
2535.69
1936.75
1361.12
603.542
3967.2
3213.83
2558.48
1947.92
931.325
2308.51
1866.24
1436.99
994.212
426.169
3477
2826.79
2141.38
1393.57
511.803
3468.44
2552.92
2029.82
1486.24
615.993
1398.76
1155.76
877.723
562.393
198.528
-684.167
-565.052
-415.532
-251.14
-83.4178
893.446
754.17
594.39
398.408
146.688
-28374.3
-46402.1
-23535
-37550.7
-25178.1
-52656.1
-30128.5
-66877.4
-17983.9
-12311.5
-20204.5
-12601.1
-16564.4
-10646.8
-20487.1
-10798.8
-23510.3
-17744.1
-34196.1
-24669.4
-20199.8
-16127.8
-28568.8
-21491.9
-16170.3
-16547.7
-13284.4
-12792.2
-15669.5
-14728.5
-39292.9
-10839.7
-14986.8
-5601.13
-48002.6
-13316.1
-13393.6
-4994.47
-29264.1
-9214.25
-15347.4
-5880.31
-26045.8
-8091.2
-12179.3
-4904.6
-15486.6
-5615.25
-11565
-5090.87
-13457.5
-4875.56
-11982
-5824.06
-10751.6
-4273.17
-13755.5
-4861.1
-4821.88
-1694.05
-10289.7
-6870.79
-8882.03
-5435.42
-9051.3
-7292.7
-7778.91
-5554.22
-9047.97
-5177.04
-10602.6
-6654.99
-6085.97
-3645.29
-3272.26
-2017.78
-5248.1
-3624.31
-2731.89
-1949.7
-6190.21
-3382.66
-3411.28
-1718.47
-7987.28
-4060.34
-5191.09
-6020.35
-10147.8
-6826.52
-7319.98
-10173.2
-5409.54
-2428.55
-3105.35
-3471.93
-2911.53
-1172.5
-1394.86
-1312.86
-12003.9
-14636.1
-6775.66
-16576.5
-12481.4
-13966
-7783.43
-16946.5
-12612.4
-12710.9
-9275.25
-16121.1
-8598.5
-6924.77
-9442.63
-10486.5
-10467.2
-9454.73
-10969.2
-12762.7
-13760.8
-19541.7
-6524.37
-6768.58
-7386.34
-8935.87
-13922.8
-13915.4
-9712.46
-17671.1
-13606.1
-12899.9
-9558.66
-17411.2
-13553.4
-11416.9
-8936.48
-16251.9
-13422.2
-7742.4
-6162.63
-8049.24
-6443.03
-9014.95
-7302.44
-9881.7
-8396.92
-14805
-13497.1
-7266.03
-6278.99
-7361.96
-6425.27
-8132.79
-7638.99
-9782.67
-9733.43
-13644.4
-14081.3
-6696.97
-5348.87
-4926.53
-6426.47
-8319.58
-11440.1
-6292.23
-10572.4
-4541.6
-5965.26
-6490.15
-5311.81
-903.117
-4236.31
-276.337
-1257.28
-3041.76
-7258.46
-693.943
-2042.49
-473.286
-3802.7
-167.368
-1177.66
-4677.62
-4649.78
-5387.22
-3256.65
-7245.38
-5643.36
-8721.86
-5753.83
-1061.22
-2516.24
-2654.35
-1452.77
-1423.16
-1815.96
-2065.74
-1518.32
-5897.25
-2028.37
-7985.32
-2723.6
-6029.01
-2117.8
-8175.17
-2933.71
-5983.79
-2085.75
-8654.79
-3335.15
-3632.65
-1025.69
-4553.8
-1744.71
-5166.12
-2002.96
-6232.35
-2357.86
-9141.68
-3638.17
-4611.59
-1406.22
-4220.36
-2077.92
-5112.91
-2425.42
-6887.28
-3005.42
-9493.19
-3588.68
-6233.73
-5835.78
-4733.15
-4635.6
-10476.4
-8008.42
-8534.95
-7066.86
-4183.27
-3593.61
-1717.31
-1222.88
-3949.87
-3784.63
-1591.01
-1647.13
-3029.58
-4665.03
-3584.64
-5039.51
-3780.53
-2530.79
-3305.66
-567.185
-6924.72
-1847.16
2554.61
355.153
-977.765
-345.904
175.532
599.971
-2405.48
-1658.72
-900.825
-523.461
-2570.38
-1761.74
-1368.55
-619
-2882.7
-2124.11
-1842.4
-879.536
-1246.05
-133.213
575.88
1012.7
-5141.4
-5522.87
-3986.07
-3722.96
-6974.43
-6983.39
-5798.54
-4868.36
-2590.5
-2879.78
-3854.26
-4421.69
-2426.07
-2103.39
-1031.64
-943.09
-3733.88
-2932.68
-1896.2
-1493.24
-1363.76
-1514.74
-255.874
-599.711
-1687.82
-1160.98
-2420.59
-1712.64
-2618.62
-2074.46
-3723.98
-2802.11
-623.623
-365.868
-1191.95
-669.745
370.441
502.156
-317.946
150.955
-3471.49
-4323.45
-2891.62
-4244.11
-3439.89
-4333.13
-2958.06
-4235.01
-3647.16
-4035.71
-3127.99
-4024.87
-2906.33
-4856.87
-2446.55
-2089.14
-2203.03
-7258.2
-5099.84
-4602.44
-4673.08
-4659.04
-5832.76
-4851.29
-4045.2
-3696.64
-2820.32
-5084.94
-5056.97
-6516.41
-10064.6
-4840.01
-4565.22
-6258.26
-9600.81
-4488.7
-4262.14
-5780.36
-8864.34
-7038.77
-5390.06
-6271.95
-4742.84
-5387.05
-4246.39
-5386.03
-4892.4
-5371.76
-8188.21
-5700.63
-5359.95
-4764.03
-4744.98
-4194.29
-4389.25
-4214.83
-4970.13
-3727.54
-7122.82
-3901.83
-2769.93
-2690.03
-996.613
-5694.46
-4973.85
-4421.55
-3274.55
-2035.2
-711.169
-3092.67
-2431.39
-3239.89
-1000.05
-473.762
89.8803
-3673.18
-2414.02
-674.91
-401.313
-2637.37
-700.179
-306.435
167.124
-1791.53
-1808.21
-1901.87
-3576.32
-2773.84
-3086.06
-2710.15
-4977.98
-1960.35
-1197.86
-1056.09
-2185.86
247.217
391.021
809.596
162.029
-3609.22
-1051.39
-6737.31
-653.826
-3385.05
-1138.8
-6557.38
-679.275
-2620.79
-694.232
-5959.74
-515.072
-2967.73
-673.168
-2680.7
-626.989
-2835.45
-860.087
-2880.64
-534.27
-5603.98
-689.016
-4098.9
-813.864
-3692.75
-595.29
-3652.09
-709.013
-3942.56
-571.531
-5887.98
-703.898
-722.119
-155.525
142.332
369.584
-244.529
-41.3322
53.6039
114.567
-713.398
-125.373
153.737
343.554
-170.521
23.9166
48.3013
58.3795
-731.963
-90.6319
146.263
292.766
-24.6182
205.786
327.832
355.344
497.147
424.802
494.197
496.604
931.399
646.048
487.218
345.098
-326.15
97.526
340.371
568.93
-260.019
148.969
260.15
562.356
-787.196
-76.4992
205.381
457.559
-598.859
41.5377
225.921
689.431
112.701
272.729
365.815
479.141
49.8364
243.971
265.423
401.428
541.042
439.188
356.769
273.914
379.344
342.917
271.638
250.548
-1138.71
-260.396
167.646
605.189
-1410.34
-303.178
34.2144
749.739
-1093.16
-227.116
183.431
616.798
-1357.07
-280.819
35.373
742.114
-1018.03
-176.255
135.859
525.628
-1234.23
-238.325
1.99249
669.305
-676.799
-43.0654
117.59
365.546
-1278.14
-205.639
-7.81575
828.55
-628.33
9.68115
142.88
525.105
-1303.47
-230.356
-19.8353
522.495
-566.06
-87.8319
17.2558
130.979
-1218.64
-198.738
-3.44688
524.756
-538.968
-77.4513
19.5791
128.305
-1046.45
-136.767
1.1331
507.902
-459.563
-51.4162
31.0683
133.782
-859.99
-85.0576
-16.9479
452.629
-376.474
-24.9481
28.6292
126.793
-630.108
-1.6425
27.8665
386.098
-194.128
35.6018
39.0651
122.421
-283.142
113.443
181.234
367.272
91.0628
181.491
154.993
178.727
-519.739
24.5712
102.181
373.833
-18.1414
115.342
96.4746
150.646
5.35178
209.769
225.983
332.26
201.357
234.823
196.356
190.779
294.773
292.379
233.27
236.627
315.578
275.05
206.783
175.264
81.0459
22.5282
8.67827
4.51307
3.11262
34.0437
10.7036
4.41084
2.34381
1.61792
93.6559
32.2193
14.6991
8.24528
5.83098
53.1431
23.0473
11.7639
6.86833
4.91494
114.646
44.7419
22.0205
12.6449
8.99261
134.624
66.4635
35.9848
21.3653
15.365
149.692
76.8443
42.0693
24.9939
17.9258
166.468
94.234
53.5644
32.2622
23.2096
137.416
58.8557
30.3879
17.7467
12.7385
116.204
51.7705
27.1245
15.8627
11.3823
123.93
48.3271
24.1523
13.8906
9.89887
101.167
47.7582
25.7521
15.1544
10.905
147.423
67.5803
35.6511
20.9346
14.9997
118.211
58.5067
31.7302
18.7781
13.5014
138.823
76.7128
43.3363
26.0502
18.7311
115.59
63.4552
35.7384
21.4508
15.4297
88.7161
20.121
7.02535
3.5174
2.39657
41.3073
8.12021
2.66344
1.29191
0.861618
94.8038
25.7172
10.6064
5.74573
4.00346
43.5211
10.1641
3.98852
2.12829
1.46279
96.915
30.7404
14.114
7.92067
5.55087
48.2138
16.6573
8.27613
4.83925
3.42119
106.202
42.3858
21.6871
12.5251
8.86034
62.6411
25.3337
13.2604
7.73457
5.4706
88.1607
46.8324
26.1731
15.612
11.2352
-1860.35
-3522.84
-1915.23
-3530.4
-2089
-3558.72
-2297.02
-3655.27
-2224.99
-3673.88
-886.962
-1366.71
-1461
-2263.77
-445.619
-650.983
-110.876
-174.626
-9041.08
-2145.17
-489.58
-109.048
-27.0393
-2435.52
-658.319
-174.802
-39.6467
-8.5978
-8882.06
-2094.37
-478.184
-105.721
-26.4271
-2483.5
-734.065
-180.46
-41.8509
-10.3745
-8393.59
-1972.68
-449.784
-99.4748
-24.9242
-2403.82
-707.051
-173.474
-40.0635
-9.97443
-7607.63
-1778.81
-405.313
-89.7052
-22.5108
-2308.88
-667.09
-161.968
-37.14
-9.20879
-6338.37
-1476.87
-337.064
-74.7667
-18.8013
-2149.5
-607.68
-146.382
-33.4204
-8.27322
-3017.48
-732.848
-169.87
-37.9369
-9.55547
-1037.62
-297.148
-71.0267
-15.951
-3.9436
-4480.22
-1074.23
-247.295
-54.983
-13.8302
-1530.81
-434.368
-104.809
-23.9408
-5.97215
-1772.1
-433.721
-100.941
-22.643
-5.71195
-573.122
-170.553
-40.4236
-9.06415
-2.26053
-603.077
-146.718
-34.1844
-7.68588
-1.93796
-213.85
-57.341
-12.3779
-3.56568
-0.66977
65.9577
-1187
-5619.52
780.577
-6585.95
-2898.77
-6380.45
-2949.31
-11666
-6225.75
-13071.7
-6925.6
-124.328
-473.955
-741.93
-874.052
-780.065
-290.49
-203.606
-741.085
-1124.89
-1247.27
-1007.85
-330.646
-104.704
-110.76
-377.485
-378.956
-538.089
-532.836
-516.102
-492.641
-456.276
-446.391
-340.96
-321.04
854.627
2164.92
3511.59
2495.76
2285.57
1088.21
785.011
2224
3609.96
4194.74
3502.75
1584.99
-112.052
-94.6465
-71.6608
-44.6237
-15.146
-427.746
-361.944
-274.562
-171.238
-58.1712
-669.535
-566.467
-429.664
-267.961
-91.03
-788.485
-666.832
-505.585
-315.211
-107.063
-703.666
-595.002
-450.969
-281.036
-95.4251
-264.34
-225.285
-171.476
-106.856
-36.2105
-183.375
-154.765
-117.09
-72.8732
-24.7281
-668.35
-565.053
-428.295
-266.97
-90.668
-1014.13
-857.059
-649.43
-404.749
-137.458
-1123.54
-948.696
-718.338
-447.497
-151.951
-907.071
-765.196
-578.942
-360.496
-122.392
-298.888
-253.167
-192.022
-119.627
-40.5944
-94.435
-79.8448
-60.5141
-37.7112
-12.8042
-99.9619
-84.5813
-64.1538
-40.0049
-13.5882
-340.826
-288.55
-219.001
-136.638
-46.424
-342.218
-289.786
-219.982
-137.271
-46.6433
-485.779
-411.217
-312.062
-194.681
-66.1415
-481.002
-407.124
-308.919
-192.704
-65.4679
-465.935
-394.416
-299.283
-186.678
-63.4123
-444.456
-375.93
-285.043
-177.705
-60.3511
-411.929
-348.605
-264.333
-164.718
-55.9107
-402.198
-339.621
-257.05
-160.01
-54.2936
-308.438
-261.258
-197.856
-122.925
-41.6063
-289.098
-243.812
-184.15
-114.354
-38.7332
757.203
629.841
472.892
294.557
100.434
1909.74
1583.95
1189.04
742.741
254.458
3060.47
2520.06
1892.76
1193.3
415.407
2159.9
1774.28
1336.55
847.273
296.188
2010.02
1656.23
1242.31
774.995
252.588
987.349
831.087
632.739
396.322
126.382
696.652
580.071
435.429
270.837
92.1963
1968.55
1636.31
1228.17
765.176
261.138
3174.65
2626.81
1970.05
1231.52
422.705
3663.35
3017.18
2261.93
1419.51
490.344
3058.35
2518.28
1889.2
1186.66
408.559
1398.8
1164.06
881.259
556.515
191.485
252.647
602.438
870.087
1000.57
902.345
420.509
383.965
919.041
1294.4
1396.08
1121.84
408.324
204.755
194.82
475.799
462.508
630.76
612.001
596.339
556.527
533.394
461.201
475.414
366.945
-703.343
-1936.59
-3117.3
-1969.98
-1650.59
-397.223
-719.946
-2120.53
-3380.84
-3782.35
-2909.68
-878.114
228.444
193.757
147.343
92.0783
31.3139
544.387
461.34
350.521
218.902
74.4203
785.983
665.829
505.705
315.729
107.323
903.65
765.315
581.126
362.755
123.298
815.286
690.774
524.684
327.562
111.337
383.193
327.417
250.202
156.597
53.2334
347.064
294.239
223.664
139.734
47.5146
830.003
702.919
533.746
333.186
113.25
1168.3
988.765
750.352
468.215
159.119
1259.16
1064.84
807.571
503.735
171.169
1011.21
854.649
647.878
404.051
137.297
369.885
314.162
239.03
149.327
50.7581
185.166
157.074
119.462
74.6607
25.391
176.18
149.446
113.654
71.0273
24.1543
430.041
364.545
277.053
173.051
58.8339
418.042
354.379
269.329
168.227
57.1939
569.959
483.021
366.992
229.177
77.9052
552.952
468.538
355.934
222.247
75.5457
538.945
456.824
347.132
216.782
73.6885
502.67
425.776
323.331
201.83
68.5934
482.484
409.315
311.199
194.367
66.0623
416.469
352.645
267.685
167.028
56.7506
431.559
367.304
279.805
174.811
59.3829
331.737
281.16
213.497
133.179
45.2285
-619.292
-511.663
-382.099
-237.394
-80.9336
-1701.91
-1406.21
-1052.83
-657.264
-225.391
-2698.87
-2207.86
-1651.32
-1040.85
-363.523
-1663.6
-1332.49
-983.714
-617.318
-215.561
-1403.91
-1112.45
-803.708
-484.994
-148.571
-325.82
-235.538
-150.474
-76.0974
-11.5055
-637.604
-529.8
-397.075
-246.828
-84.0278
-1875.02
-1557.04
-1168.02
-727.741
-248.462
-2965.43
-2447.2
-1831.86
-1144.48
-393.035
-3282.02
-2685.02
-2002.28
-1253.49
-433.083
-2505.04
-2031.85
-1505.08
-938.393
-322.04
-736.804
-579.595
-417.593
-255.51
-86.2934
-1457.96
-918.782
-262.912
638.247
937.358
1189.92
546.868
-10938.5
-1752.62
-3185.21
-1518.14
239.846
-3948.31
819.139
2435.22
1146.05
-5941.7
-2716.09
-489.742
-568.658
-3342.08
-1283.39
-269.366
-1017.47
2090.31
1295.84
-514.274
-178.279
-7771.33
-3592.03
-4297.94
-2078.26
-3497.17
-3370.11
-1086.38
1309.61
-401.529
-709.888
-458.705
-385.678
-468.282
-528.564
-568.632
-361.79
-241.897
-176.031
-94.8485
-217.833
-170.185
-123.806
-78.0411
-27.5418
577.413
489.766
372.135
232.238
78.9082
844.944
713.553
539.886
335.84
113.891
1072.59
905.949
685.735
426.794
144.789
496.822
421.916
319.368
197.662
66.5663
-7720.67
-6753.52
-5925.15
-5831.57
-5950
-1112.01
-722.28
-807.196
-914.616
-640.098
-2215.1
-1604.91
-1352.51
-1153.15
-698.733
-965.389
-622.236
-557.97
-491.109
-217.447
225.324
186.687
125.229
59.0977
11.4154
-3269.24
-2649.9
-2014.57
-1353.29
-538.817
742.171
621.822
459.401
275.205
88.9968
2112.18
1720.4
1267.87
778.925
263.443
1027.76
860.568
644.285
396.571
133.165
-4082.16
-3707.2
-3278.48
-3262.33
-3359.77
-1850.45
-1306.37
-1079.19
-890.175
-505.384
-377.091
-303
-263.313
-218.883
-105.095
-453.672
-357.29
-280.261
-201.403
-83.8237
-2767.96
-2217.1
-1683.2
-1122.7
-437.776
-1071.23
-859.146
-653.277
-434.571
-161.016
-206.594
-153.013
-112.508
-77.3333
-31.0505
-873.569
-710.948
-534.131
-341.36
-120.789
1863.7
1555.54
1165.06
719.695
243.003
1167.69
983.75
740.548
457.436
154.08
-426.337
-341.024
-260.902
-175.862
-66.8235
-134.246
-99.7493
-77.7308
-58.1003
-24.4565
-4691.2
-3217.31
-2757.1
-2669.7
-2552.57
-2589.89
-1909.25
-1430.53
-1028.3
-486.546
-2836.51
-2195.56
-1727.05
-1403.62
-722.832
-1525.23
-1161.24
-870.123
-624.867
-299.647
-2915.5
-2334.63
-1756.74
-1149.88
-429.3
-2319.07
-1510.86
-1205.8
-965.627
-441.862
-918.154
-738.08
-552.843
-356.373
-128.188
1181.89
997.907
753.259
466.61
157.538
-309.228
-234.885
-182.45
-133.377
-55.5017
1.96088
41.3827
92.8285
117.741
76.9711
-34.3254
-20092.3
-17740.6
-16888.2
-19246.6
-14728.8
-11663.2
-13246.3
-10057.3
-17442.2
-15308.2
-16073.1
-15133.1
-14109.4
-12024.5
-14838.3
-16546.1
-14792.9
-13577.3
-15310.5
-12438.5
-10533.8
-11097.9
-8898.81
-15655.9
-13931.8
-14427
-13161.4
-12498.6
-11670.9
-12062.5
-13003.4
-11919.6
-10751.4
-11762.6
-10346.4
-8886.65
-9273
-7963.32
-13115.8
-11939.6
-12210.3
-11163.4
-10625.6
-9825.46
-10129.9
-9088.26
-8551.52
-7588.96
-8048.59
-7674.06
-6883.38
-6891.38
-6303.66
-9460.76
-9565.47
-8926.85
-9011.76
-7963.58
-7199.7
-8001.12
-5814.53
-5557.87
-4885.15
-5098.25
-5142.52
-4657.33
-4550.55
-4205.19
-6268.21
-6270.35
-5988.6
-5865.06
-5453.47
-4927.93
-5335.56
-2093.57
-2019.15
-1767.68
-1830.75
-1900.41
-1776.18
-1668.2
-1555.82
-2375.99
-2374.25
-2223.9
-2123.63
-2049.59
-1880.98
-2014.95
-7595.64
-7485.68
-11373.2
-12262.8
-7143.02
-6341.99
-9975.14
-8108.84
-5928.05
-4395.03
-5886.31
-4363.82
-5909.75
-5655.56
-4439.11
-7562.61
-7176.44
-10118.8
-11036.9
-6664.02
-6033.18
-8800.19
-7578.15
-5895.46
-3855
-5794.11
-4079.51
-5294.09
-5092.26
-4466.72
-6896.2
-6575.15
-8572.9
-9194.09
-6181.59
-5753.42
-7671.82
-6790.08
-4868.86
-4175.47
-4858.67
-4414.51
-4541.41
-4549.47
-4588.83
-5557.62
-5353.38
-6417.48
-6740.49
-5087.4
-4760.3
-5942.66
-5425.22
-4659.99
-3748.86
-4585.34
-4007.54
-4293.85
-4266.08
-4101.71
-3831.19
-3713.49
-4239.48
-4400.76
-3454.96
-3200.26
-3995.78
-3670.65
-3265.89
-2882.5
-3194.96
-3039.27
-2993.9
-2942.88
-2911.24
-1425.26
-1383.03
-1548.68
-1599.82
-1281.01
-1177.88
-1468.59
-1353.37
-1065.94
-1055.01
-1139.5
-1153.12
-1107.8
-1077.11
-1061.69
7350.26
23752.1
5831.63
24863.9
4383.91
25709.6
6934.88
39606.8
8519.88
54450.2
8448.25
39664.9
8134.44
32915.9
8467.23
28795.4
5131.65
3184.05
13739.5
8161.58
5029.93
2714.82
15026
7461.26
5589.29
4057.63
17669.4
12469.2
4233.51
3062.18
17747.7
12920.3
9986.33
4221.55
8627.19
3846.69
3970.93
9327.38
34427.8
9324.69
12333.9
4163.27
44316.9
12024
11535.9
3976.2
24614
7634.23
12634.5
4403.15
21426.3
6807.88
6072.48
3011.24
8804.04
3437.04
6637.66
3586.98
8749.88
3362.76
8401.13
4792.28
7534.78
3279.79
11109.1
3997.11
3818.57
1334.69
12582.1
8745.06
7770
5691.88
13993.5
11521.9
7642.2
6613.76
7388.31
5012.33
10447.6
7022.1
5110.84
3762.34
2583.65
2123.06
4918.43
4248.59
2529.69
2443.6
4919.84
3237.37
2510.23
1615.68
6620.31
3603.86
4981.92
5993.63
9087.26
6469.38
7237.08
10273.2
4370.24
2073.51
2933.07
3426.89
2162.3
900.385
1263.44
1269.28
8079.08
14558.3
5470.26
16239.2
9514.96
14247.2
6766.34
16994.7
10789.5
12891.9
8696.7
16568.3
12591.9
14917.4
9556.44
9237.48
10085
14915.6
13895.5
13741.5
14143.1
20361
12128.7
9421.85
8215.31
9214.45
14382.3
16900
15120.2
19565
18803.7
15445.5
14324.6
19299.4
18418.3
13369
13048.9
18097.7
17743.8
10904.3
8576.71
10256.3
8963.6
11245.9
10101
12123.6
11675.1
16634.6
17069.4
10185.5
8857.2
9800.89
9483.9
10158.4
10836.3
11451.8
12924.9
14919.7
17329.7
8441
6633.83
5783.16
7341.87
11334.8
13770.1
7847.55
12387.7
4928.4
6458.26
7357.43
6076.62
1416.44
4867.55
723.814
1744.61
4005.25
8315.12
1469.96
2875.68
700.906
4146.45
381.142
1451.08
4856.75
4930.28
5521.81
3453.38
7698.55
6178.06
9052.55
6276.14
1162.26
2701.45
2743.8
1576.22
1521.8
1967.93
2146.46
1623.97
12054.7
7328.35
2315.09
13610.6
7828.19
2564.76
11533.9
7236.66
2446.47
13383.6
7825.45
2559.56
10612.1
6647.82
2187.31
13055.5
7861.61
2627.74
5650.14
3091.39
847.02
7287.18
4806.02
1667.08
8726.97
6016.23
2074.21
10110.8
6554.55
2177.8
12926.4
8073.25
2821.64
6684.01
3791.33
1214.12
6896.25
4969.4
1876.56
8216.49
6066.81
2230.99
10252
7198.38
2577.5
13080.7
8180.42
2905.98
305.053
2023.9
2875.82
4131.45
2212.04
2532.81
5552.75
5256.95
586.53
1016.55
625.045
1054.94
491.604
1413
874.21
1852.61
3237.5
1581.8
4083.88
2360.76
2170.09
3790.88
3419.89
913.265
6146.38
1481.35
-1950.92
687.758
1771.57
1307.28
1223.35
1110.63
9792.2
4441.95
2658.93
1638.21
9923.25
4618.52
3362.79
2085.15
9799.15
4967.04
4877.76
3403.04
3499.43
2505.73
1703.83
1627.81
12673.9
11258.6
5964.24
6184.34
13684.2
12837.2
6750.03
6800.83
5282.33
5431.76
10859.4
9063.28
3551.04
3717.21
1970.29
2249.36
4151.79
4125.11
2265.09
2432.07
3082.96
3328.3
1714.2
2125.72
4693.37
3265.75
4676.84
3298.71
7314.58
4298.97
6967.02
4563.01
2820.51
2365.34
2958.76
2131.21
1563.67
1477.25
1880.08
1250.49
11583
7976.86
5792.12
5838.19
11497.9
8180.99
5817.86
5810.44
11951.2
8539.13
5900.83
5655.04
13902.4
15055.3
12650.6
8444.55
4775.28
14265.8
13153.7
12190.6
10048.4
6455.2
13372.7
12049.3
9610.59
7385.86
4594.52
6703.09
5917.35
6227.24
7066.26
6941.58
5839.24
6305.77
6997.86
7287.5
5853.09
6394.45
6934.81
10762.2
7603.69
9994.76
6951.88
7841.76
6326.45
7316.26
6244.22
5949.33
6897.27
8944.51
7766.32
7879.85
6876.12
6706.67
6075.99
5899.64
5847.58
4678.82
6557.3
7044.54
4764.23
4681.6
2802.14
9237.64
7121.38
6419.22
5171.06
3810.83
2285.91
5529.5
4079.76
4726.41
2234.49
1722.11
989.803
5018.43
3633.64
1744.02
1446.25
4080.04
1816.91
1599.64
839.401
3156.71
2894.74
2760.63
4036.95
4394.63
4140.84
3515.2
5160.71
3208.22
2068.94
2008.4
2747.25
963.319
462.686
199.662
505.156
4084.22
1707.27
505.247
4683.86
1222.01
325.608
4148.7
1848.03
567.773
4681.39
1266.5
354.778
3909.76
1847.13
478.961
4623.62
1296.25
304.823
4707.49
2398.48
543.315
4216.52
2037.89
483.672
4101.05
1964.58
532.376
4038
1889.48
402.579
4628.29
1280.37
193.056
5941.84
2998.7
808.095
5312.1
2639.02
723.435
4800.42
2368.51
688.861
4519.24
1933.55
476.767
5022.33
1203.87
295.079
1716.82
612.047
124.571
-173.234
711.718
267.174
73.4843
-33.4868
1826.31
674.812
177.841
-103.003
913.609
375.261
181.145
83.6282
1959.8
749.7
267.144
6.63187
1561.52
718.685
272.381
58.5126
1187.67
658.185
219.532
-19.6636
1106.18
712.462
401.845
231.65
1620.75
711.934
211.716
-163.468
1382.39
599.614
259.637
-159.372
1914.56
737.772
239.725
-109.261
1727.8
669.217
266.964
-259.698
1298.32
659.097
255.026
-54.8579
1060.06
527.297
277.312
1.79394
955.734
576.676
333.788
199.666
728.885
442.711
289.994
166.428
2184.66
740.655
127.088
-345.796
2151.96
681.773
186.481
-469.13
2183.55
752.329
147.407
-328.638
2083.74
662.946
194.304
-453.684
2142.97
755.317
222.072
-227.965
1948.13
628.081
236.837
-367.288
1881.39
698.812
302.602
-15.3809
2138.03
703.753
331.085
-427.497
1677.14
624.26
301.172
-98.1032
1696.96
480.925
166.789
-314.758
674.089
175.005
44.9445
-64.0572
1750.84
511.984
183.932
-297.176
700.357
188.323
56.7913
-50.0977
1792.73
550.833
225.437
-258.889
717.92
205.471
72.4773
-34.4681
1620.67
520.265
258.418
-201.301
700.262
212.809
99.0809
-6.41007
1487.73
518.049
277.74
-112.92
630.633
225.062
134.224
31.382
1034.84
415.082
200.328
-35.6443
594.932
291.713
173.484
89.7438
1196.21
423.571
209.935
-83.5548
601.216
255.423
154.729
61.3463
833.223
399.121
215.703
32.2301
531.681
304.279
187.532
117.494
587.451
359.178
239.182
144.489
441.225
299.849
204.664
151.157
-16.549
5.54042
5.81766
3.95592
2.9168
-2.9563
3.79953
3.2379
2.1436
1.57608
7.79449
18.0555
12.6553
8.02045
5.8159
22.9722
17.7502
10.9955
6.76714
4.86636
33.1648
32.5917
20.9277
13.0628
9.45377
92.9609
60.249
35.7192
21.7901
15.6534
111.073
70.9375
42.0807
25.7542
18.5764
161.907
93.8802
54.0382