/*--------------------------------*- C++ -*----------------------------------*\
  =========                 |
  \\      /  F ield         | OpenFOAM: The Open Source CFD Toolbox
   \\    /   O peration     | Website:  https://openfoam.org
    \\  /    A nd           | Version:  11
     \\/     M anipulation  |
\*---------------------------------------------------------------------------*/
FoamFile
{
    format      ascii;
    class       volScalarField;
    location    "1.9";
    object      T;
}
// * * * * * * * * * * * * * * * * * * * * * * * * * * * * * * * * * * * * * //

dimensions      [0 0 0 1 0 0 0];

internalField   nonuniform List<scalar> 
5712
(
538.367
554.794
527.829
547.685
512.602
537.917
486.295
516.319
485.893
509.658
509.401
532.669
523.627
543.772
532.966
550.925
503.847
483.599
523.911
494.63
475.693
454.586
495.743
464.316
546.521
554.126
559.466
563.655
536.215
545.623
553.165
559.109
536.682
521.323
514.125
504.009
533.041
547.2
543.293
542.98
504.893
509.089
519.618
518.722
474.282
477.755
550.355
552.519
525.023
531.175
559.504
562.251
559.228
567.476
566.867
570.674
552.373
564.753
563.438
569.292
538.661
558.866
550.161
564.467
558.676
567.786
561.98
568.956
469.207
457.215
476.677
459.749
437.439
426.776
445.292
429.575
504.234
488.465
497.246
485.769
482.033
460.982
483.474
460.809
450.695
431.052
452.166
431.013
509.236
489.747
510.651
489.671
528.476
556.017
516.412
547.451
521.923
552.094
513.039
544.256
533.136
558.279
518.057
549.138
534.618
559.109
518.205
549.9
552.674
539.679
563.772
554.221
542.848
529.959
559.802
549.025
528.099
516.162
552.861
541.326
454.26
417.243
486.282
512.348
544.259
411.582
448.475
480.427
505.002
534.383
417.041
450.785
481.164
508.098
537.958
516.569
496.604
521.469
502.378
510.716
492.178
519.555
500.308
501.492
484.204
516.584
497.62
401.404
388.837
439.318
426.219
469.835
455.518
493.432
477.671
515.39
497.77
405.677
391.961
440.79
429.925
471.437
459.896
497.303
483.788
519.09
503.822
444.688
439.154
443.229
438.117
410.238
391.383
410.253
390.628
473.592
471.745
475.114
471.892
440.836
437.085
440.785
437.273
409.506
390.648
409.645
390.95
470.903
470.723
470.845
470.995
501.612
499.697
524.206
521.521
501.811
498.092
523.564
518.65
500.304
499.525
524.259
522.372
498.991
498.723
523.15
521.38
475.51
459.647
451.524
478.569
461.428
452.997
472.521
456.406
447.941
476.679
458.951
450.084
464.891
448.724
440.17
473.944
454.927
445.347
375.494
366.238
361.83
411.137
398.155
391.25
438.74
422.825
413.956
458.436
441.101
431.952
472.907
451.727
440.836
377.165
365.626
360.028
416.799
402.719
395.115
444.134
426.704
416.806
463.605
442.704
431.153
475.715
451.607
438.818
408.389
399.497
414.098
405.3
440.314
424.974
450.964
432.691
383.934
361.194
385.144
363.159
385.284
364.03
387.156
366.111
386.81
382.859
386.197
380.682
367.495
371.137
409.503
412.369
438.266
441.131
390.151
394.614
390.118
392.844
374.25
377.494
339.104
321.367
344.466
324.711
341.798
321.97
347.045
325.753
346.091
322.79
353.168
327.744
357.093
330.873
359.034
332.803
382.017
372.588
389.586
376.147
407.906
397.571
415.506
400.893
368.778
355.013
361.483
351.508
393.917
378.16
395.812
378.809
420.173
402.705
421.844
403.005
372.903
357.095
374.912
357.93
348.892
325.13
337.832
319.527
342.242
321.139
334.643
317.201
352.954
328.122
339.782
321.049
355.183
330.178
340.674
321.899
322.7
311.718
314.794
307.591
325.012
314.424
315.161
308.367
329.491
320.47
316.173
310.571
362.928
386.406
345.539
332.623
316.145
381.401
358.265
339.026
326.756
312.454
386.124
362.855
344.272
329.771
314.359
302.761
294.599
300.589
293.178
305.777
297.448
301.959
294.622
311.777
303.172
304.643
297.296
371.087
359.115
348.43
337.147
331.478
321.733
319.499
310.363
307.883
300.445
374.603
360.096
352.253
338.74
335.415
323.74
322.295
311.623
309.89
301.671
356.53
338.633
359.73
340.758
379.509
359.678
382.077
360.566
341.663
325.895
338.672
323.624
362.412
342.132
363.16
342.774
383.882
361.085
384.38
361.575
344.351
327.492
345.119
328.081
325.749
312.384
311.589
301.42
324.105
310.646
310.79
300.735
327.196
313.658
312.132
301.685
328.73
314.393
313.06
302.558
286.205
282.186
280.625
281.369
278.184
277.112
289.253
284.76
282.986
282.836
279.476
278.241
294.973
289.967
287.899
285.157
281.18
279.66
347.413
339.696
336.144
326.888
320.536
317.811
312.526
306.779
304.511
300.991
295.03
292.458
286.885
282.133
280.248
346.222
336.429
332.176
326.412
317.881
314.221
312.572
305.047
301.943
300.23
293.618
291.097
285.909
281.414
279.66
307.273
297.961
291.835
287.237
308.745
298.51
291.969
287.176
307.376
298.055
291.942
287.332
309.273
298.795
292.198
287.373
307.363
298.142
292.215
287.652
309.694
299.084
292.574
287.726
311.104
299.804
292.73
287.666
312.298
300.548
293.09
287.842
308.78
298.927
292.682
287.92
306.917
298.516
292.786
288.405
306.962
298.143
292.469
288.048
305.838
297.958
292.546
288.413
310.278
299.663
292.922
287.946
307.818
299.032
293.049
288.56
311.467
300.344
293.276
288.195
308.569
299.514
293.372
288.845
304.891
297.134
291.709
287.473
302.081
296.201
291.557
287.838
304.913
297.18
291.802
287.578
302.311
296.309
291.628
287.912
305.054
297.297
291.994
287.813
302.971
296.592
291.796
288.063
304.897
297.359
292.193
288.144
303.501
296.855
292.005
288.285
304.667
297.428
292.36
288.489
299.809
295.52
291.272
288.489
298.487
295.183
291.172
288.703
300.292
295.701
291.37
288.562
299.02
295.378
291.263
288.762
301.173
296.045
291.528
288.667
299.938
295.73
291.416
288.861
302.246
296.496
291.796
288.851
300.987
296.167
291.636
289.005
303.274
297.019
292.125
289.056
301.874
296.632
291.892
289.179
304.699
297.984
292.647
289.371
303.165
297.601
292.517
289.615
304.036
297.518
292.379
289.2
302.539
297.125
292.194
289.385
305.276
298.421
292.886
289.534
303.769
298.082
292.828
289.848
305.874
298.857
293.187
289.773
304.405
298.559
293.16
290.108
283.103
280.293
278.304
277.047
276.442
283.098
280.299
278.309
277.051
276.444
283.157
280.32
278.319
277.056
276.448
283.169
280.336
278.329
277.063
276.453
283.232
280.356
278.337
277.067
276.456
283.254
280.38
278.354
277.077
276.463
283.358
280.441
278.389
277.098
276.478
283.507
280.528
278.439
277.129
276.5
283.33
280.41
278.368
277.085
276.469
283.427
280.441
278.381
277.093
276.474
283.296
280.382
278.35
277.074
276.461
283.38
280.411
278.364
277.082
276.466
283.422
280.464
278.399
277.104
276.482
283.514
280.49
278.41
277.11
276.486
283.565
280.546
278.446
277.133
276.503
283.64
280.561
278.451
277.135
276.504
283.123
280.29
278.299
277.044
276.44
283.147
280.288
278.297
277.042
276.438
283.164
280.31
278.31
277.05
276.444
283.179
280.304
278.305
277.047
276.441
283.233
280.342
278.327
277.06
276.451
283.236
280.331
278.319
277.055
276.447
283.31
280.374
278.343
277.069
276.457
283.299
280.363
278.337
277.065
276.454
283.351
280.392
278.353
277.075
276.461
528.795
525.833
528.444
525.509
528.178
525.397
528.765
526.104
531.216
528.62
535.944
536.34
534.572
534.042
536.487
537.222
536.639
537.233
564.048
571.083
572.567
572.903
572.975
556.488
569.009
572.096
572.801
572.952
564.133
571.114
572.576
572.905
572.976
556.591
569.055
572.106
572.805
572.952
564.196
571.142
572.584
572.907
572.976
556.7
569.101
572.12
572.808
572.953
564.489
571.219
572.602
572.911
572.977
557.071
569.202
572.144
572.814
572.955
565.154
571.361
572.632
572.918
572.979
557.91
569.391
572.184
572.822
572.956
565.757
571.439
572.644
572.92
572.979
559.992
569.809
572.267
572.838
572.96
565.608
571.425
572.643
572.92
572.98
559.203
569.644
572.235
572.832
572.959
565.795
571.44
572.644
572.919
572.979
560.365
569.898
572.285
572.842
572.961
565.856
571.455
572.647
572.92
572.979
560.438
569.928
572.29
572.843
572.961
423.04
459.86
457.422
418.637
401.456
402.973
404.914
407.849
416.986
421.05
447.907
457.265
456.067
466.098
431.427
436.112
418.793
422.27
411.836
413.948
365.16
347.19
300.885
294.758
297.377
294.465
298.954
362.498
356.093
338.748
345.279
341.578
319.405
329.223
324.942
313.703
317.318
312.023
359.564
332.973
316.792
313.206
321.052
316.829
309.095
307.358
305.358
301.935
310.327
307.533
361.711
340.094
348.045
328.723
321.386
333.715
309.646
302.655
312.448
346.722
330.821
316.845
302.138
284.856
335.927
324.284
311.658
297.907
282.217
298.043
294.084
288.931
282.916
276.368
292.597
289.546
285.529
280.806
275.651
294.94
291.505
286.996
281.711
275.956
292.338
289.331
285.366
280.703
275.615
296.338
292.669
287.868
282.252
276.14
344.485
327.94
313.807
299.563
283.84
338.404
322.226
308.619
295.222
280.92
328.921
318.056
306.193
293.658
280.243
330.395
316.048
303.594
291.487
279.325
327.565
313.736
301.689
290.123
278.755
313.757
306.562
297.908
288.342
278.197
321.362
312.133
301.703
290.6
278.98
317.848
309.328
299.576
289.191
278.45
309.061
302.922
295.318
286.768
277.657
311.955
305.07
296.76
287.589
277.923
307.648
301.802
294.503
286.265
277.484
343.313
327.799
314.122
299.915
284.001
324.922
315.472
304.649
292.826
279.956
311.729
305.115
296.982
287.841
278.041
308.736
302.784
295.337
286.861
277.712
315.318
308.02
299.185
289.286
278.582
311.873
305.366
297.297
288.122
278.162
305.241
300.013
293.355
285.67
277.311
303.729
298.761
292.398
285.052
277.091
301.97
297.294
291.278
284.334
276.84
298.971
294.841
289.476
283.236
276.471
306.254
300.752
293.805
285.881
277.365
303.864
298.848
292.439
285.062
277.091
344.723
329.343
315.685
301.286
284.659
330.587
320.166
308.514
295.687
281.225
336.666
323.99
311.307
297.602
282.04
321.835
313.4
303.369
292.098
279.652
315.751
308.522
299.686
289.672
278.727
325.714
316.296
305.424
293.435
280.208
305.715
300.387
293.615
285.819
277.359
299.602
295.365
289.873
283.489
276.559
308.113
302.314
295.022
286.684
277.656
503.362
541.873
496.652
536.736
472.906
517.776
479.354
522.962
485.032
471.113
516.411
488.511
460.056
445.328
489.684
459.917
520.353
534.685
550.495
557.104
513.938
527.928
546.474
553.766
529.442
503.917
507.723
490.784
517.831
541.117
541.02
542.458
502.376
508.469
517.683
518.254
472.511
477.316
547.945
551.987
522.429
530.552
557.636
561.863
548.717
564.048
563.161
569.437
542.312
561.463
560.211
568.16
529.139
555.795
545.535
562.918
557.021
567.202
561.649
568.831
464.777
456.802
473.85
459.696
436.126
428.714
444.182
430.837
500.713
487.791
491.393
484.313
480.743
461.076
483.149
460.88
450.242
431.813
452.086
431.291
507.594
489.499
510.216
489.628
525.663
555.061
515.764
547.248
517.277
550.525
511.749
543.86
531.795
557.803
517.784
549.05
534.254
558.973
518.142
549.878
535.389
520.049
558.358
547.801
527.236
512.774
554.838
543.34
515.252
502.675
548.806
537.032
455.534
427.447
481.607
506.805
542.338
424.371
451.001
475.156
498.259
532.147
425.101
452.527
479.487
506.081
537.37
498.984
484.563
515.174
501.75
495.138
481.381
514.586
500.69
488.927
475.61
513.567
499.415
417.197
408.191
443.725
433.593
466.704
455.171
488.772
476.007
514.894
501.038
416.591
405.396
444.864
436.955
471.694
463.53
496.792
486.595
519.64
507.212
446.929
443.05
444.736
440.563
415.71
399.484
413.266
395.167
474.146
472.984
475.565
473.668
441.733
438.394
441.082
437.68
411.087
392.934
410.147
391.645
471.317
471.446
470.992
471.226
501.806
500.361
524.437
522.037
501.803
499.146
523.832
519.632
500.486
499.91
524.412
522.642
499.065
498.857
523.203
521.465
475.671
471.76
490.148
484.892
472.541
468.041
488.842
482.622
466.536
461.912
486.942
479.343
400.435
395.083
425.555
419.726
446.576
440.227
466.384
460.039
486.68
476.475
394.971
388.622
429.937
422.735
454.829
446.024
474.22
463.327
487.922
474.603
405.501
398.822
414.471
405.829
431.695
420.151
448.681
430.81
387.269
367.603
390.888
369.978
386.839
369.568
390.932
371.767
389.336
384.304
388.662
383.322
372.298
375.345
410.051
412.588
437.614
440.995
391.827
395.191
391.696
393.401
376.968
378.464
352.01
333.256
353.728
334.329
353.589
333.007
354.87
334.025
356.617
332.621
359.283
334.486
360.757
335.075
360.307
334.266
388.004
379.656
392.556
380.244
410.277
402.384
416.461
403.718
373.483
359.827
370.209
359.609
395.471
380.356
396.31
379.521
420.72
404.245
422.048
403.519
375.384
359.694
375.692
358.765
355.007
330.817
342.708
323.715
352.596
329.436
342.544
323.518
356.267
331.477
342.465
323.451
356.223
331.277
341.537
322.683
348.525
343.698
330.64
326.333
350.014
345.477
330.205
326.108
352.437
348.889
329.598
326.188
382.532
403.201
365.68
349.423
327.136
401.613
382.398
365.362
348.531
325.405
399.58
378.11
358.711
341.932
322.953
337.722
330.7
320.386
311.309
340.186
333.576
320.776
312.055
344.106
338.135
321.406
313.128
395.012
386.95
376.193
369.171
359.605
353.777
342.894
336.578
320.973
313.022
391.303
379.24
370.482
359.09
352.026
341.643
335.747
325.424
318.76
310.022
366.179
349.9
364.892
346.809
388.049
370.751
386.52
366.463
346.899
331.45
347.953
333.567
365.002
345.136
363.962
343.674
386.088
364.005
385.064
362.449
347.043
330.291
345.955
328.923
330.442
316.864
315.241
304.615
332.055
318.359
316.58
305.924
329.714
315.985
314.166
303.419
329.549
315.127
313.704
303.088
324.822
322.794
296.389
294.909
328.499
326.079
297.464
295.796
333.218
329.375
298.684
295.314
379.794
374.683
362.733
358.273
348.1
344.233
329.796
324.385
297.805
292.487
368.547
363.498
349.071
344.678
332.078
328.148
314.417
310.258
292.007
287.99
315.14
302.807
294.829
289.089
315.677
302.909
294.728
288.897
314.707
302.606
294.744
289.037
315.321
302.681
294.647
288.895
313.883
302.25
294.782
289.21
314.632
302.301
294.645
289.025
314.314
301.938
294.113
288.543
313.438
301.316
293.591
288.165
312.844
301.625
294.469
289.089
310.081
300.71
294.313
289.485
312.51
301.728
294.792
289.52
310.407
301.036
294.6
289.785
312.792
301.364
294.069
288.721
309.694
300.357
293.998
289.268
312.322
300.929
293.673
288.464
309.194
299.959
293.695
289.09
314.06
302.561
295.023
289.529
312.424
302.186
295.19
290.142
313.639
302.392
294.985
289.534
312.173
302.08
295.136
290.126
312.951
302.109
294.962
289.622
311.809
301.892
295.045
290.103
311.744
301.665
294.907
289.821
311.243
301.639
294.974
290.139
310.534
301.249
294.831
290.087
310.758
301.854
295.091
291.15
309.597
301.668
295.13
291.577
310.697
301.788
295.063
291.137
309.564
301.604
295.091
291.551
310.504
301.638
294.951
291.051
309.411
301.462
294.986
291.481
310.089
301.387
294.854
290.981
309.046
301.235
294.864
291.399
309.349
301.015
294.731
290.921
308.33
300.909
294.701
291.299
307.699
300.138
294.168
290.554
306.413
299.984
294.184
290.915
308.463
300.581
294.46
290.747
307.308
300.467
294.468
291.132
307.024
299.706
293.817
290.285
305.639
299.496
293.835
290.644
306.445
299.282
293.499
290.028
305.006
299.02
293.491
290.371
284.124
280.872
278.634
277.246
276.585
284.073
280.856
278.627
277.243
276.582
284.089
280.848
278.619
277.237
276.578
284.02
280.823
278.607
277.23
276.573
284.054
280.82
278.601
277.226
276.57
283.959
280.783
278.583
277.216
276.563
283.848
280.722
278.549
277.195
276.548
283.692
280.635
278.5
277.166
276.527
283.965
280.769
278.572
277.209
276.557
283.989
280.756
278.561
277.201
276.552
284.046
280.803
278.59
277.219
276.565
284.053
280.787
278.577
277.211
276.559
283.859
280.713
278.541
277.19
276.544
283.897
280.706
278.533
277.184
276.54
283.717
280.632
278.496
277.163
276.524
283.774
280.636
278.494
277.161
276.523
284.196
280.89
278.64
277.25
276.587
284.26
280.903
278.644
277.252
276.588
284.173
280.873
278.63
277.243
276.582
284.24
280.889
278.636
277.246
276.585
284.139
280.846
278.613
277.232
276.575
284.202
280.864
278.621
277.237
276.578
284.117
280.822
278.597
277.222
276.567
284.151
280.833
278.603
277.226
276.57
284.095
280.806
278.587
277.216
276.563
527.438
525.891
527.661
526.082
528.278
526.685
529.612
527.889
532.174
530.304
536.266
536.757
535.111
534.828
536.663
537.433
536.695
537.298
564.002
571.099
572.574
572.905
572.976
556.566
569.05
572.11
572.805
572.953
564.154
571.138
572.583
572.907
572.977
556.783
569.113
572.122
572.809
572.954
564.319
571.177
572.592
572.909
572.977
557.051
569.182
572.139
572.813
572.954
564.686
571.261
572.611
572.913
572.978
557.529
569.298
572.165
572.818
572.956
565.342
571.399
572.641
572.92
572.98
558.351
569.483
572.203
572.826
572.957
565.83
571.457
572.648
572.921
572.98
560.162
569.853
572.277
572.841
572.961
565.73
571.453
572.65
572.921
572.98
559.494
569.714
572.251
572.836
572.96
565.835
571.45
572.646
572.92
572.979
560.452
569.921
572.291
572.843
572.961
565.869
571.458
572.648
572.92
572.979
560.465
569.936
572.292
572.843
572.961
423.127
459.557
456.303
418.861
411.835
418.113
409.472
417.267
439.37
456.262
443.284
458.21
279.37
279.933
281.182
283.202
286.132
290.117
279.843
280.421
281.7
283.747
286.653
290.512
279.014
278.838
279.611
279.494
280.939
280.96
283.106
283.395
286.213
286.848
290.231
290.947
295.281
301.672
309.468
318.748
327.727
333.623
295.383
301.239
307.952
315.03
321.287
325.186
278.763
277.891
276.721
275.326
273.791
279.271
278.32
277.047
275.53
273.86
280.398
279.274
277.771
275.981
274.014
282.22
280.814
278.938
276.708
274.261
284.859
283.042
280.624
277.758
274.617
288.439
286.056
282.901
279.175
275.098
279.19
278.252
276.995
275.497
273.849
279.711
278.693
277.329
275.706
273.92
280.864
279.668
278.068
276.166
274.077
282.709
281.226
279.249
276.902
274.326
285.324
283.432
280.917
277.94
274.679
288.789
286.346
283.118
279.309
275.143
278.441
277.618
276.514
275.197
273.747
278.282
277.483
276.412
275.133
273.726
278.98
278.074
276.86
275.413
273.821
278.875
277.985
276.792
275.371
273.806
280.18
279.09
277.631
275.894
273.984
280.199
279.106
277.643
275.902
273.987
282.135
280.743
278.885
276.675
274.25
282.396
280.964
279.053
276.78
274.285
284.934
283.107
280.674
277.79
274.628
285.506
283.591
281.041
278.018
274.706
288.546
286.149
282.972
279.219
275.113
289.191
286.694
283.384
279.475
275.199
293.06
289.931
285.819
280.988
275.713
298.74
294.667
289.373
283.196
276.464
305.593
300.328
293.61
285.838
277.37
313.595
306.859
298.494
288.924
278.454
321.085
312.863
302.997
291.846
279.536
325.909
316.698
305.886
293.753
280.265
293.146
290
285.87
281.02
275.724
298.357
294.349
289.137
283.051
276.415
304.285
299.266
292.823
285.346
277.199
310.468
304.356
296.632
287.733
278.023
315.86
308.757
299.928
289.818
278.755
319.197
311.474
301.968
291.119
279.218
279.459
280.205
281.661
283.928
287.163
291.526
279.935
280.703
282.193
284.481
287.663
291.825
279.102
278.929
279.884
279.777
281.426
281.471
283.86
284.201
287.306
288.02
291.793
292.679
297.101
303.817
311.747
320.789
329.124
334.117
296.982
303.033
309.764
316.605
322.359
325.566
278.843
277.959
276.773
275.359
273.802
279.517
278.53
277.207
275.63
273.895
280.833
279.645
278.054
276.158
274.074
282.88
281.377
279.368
276.979
274.353
285.797
283.844
281.239
278.145
274.749
289.724
287.158
283.748
279.709
275.28
279.273
278.323
277.049
275.531
273.861
279.968
278.911
277.496
275.81
273.956
281.312
280.05
278.36
276.35
274.139
283.376
281.796
279.685
277.176
274.42
286.244
284.218
281.52
278.32
274.809
289.986
287.373
283.907
279.807
275.314
278.521
277.686
276.566
275.229
273.758
278.365
277.553
276.465
275.166
273.737
279.228
278.285
277.021
275.514
273.855
279.131
278.203
276.959
275.475
273.842
280.622
279.466
277.918
276.074
274.046
280.662
279.501
277.945
276.091
274.051
282.819
281.327
279.331
276.956
274.345
283.128
281.589
279.53
277.08
274.388
285.928
283.957
281.326
278.2
274.768
286.574
284.504
281.742
278.46
274.856
289.971
287.371
283.912
279.812
275.315
290.772
288.05
284.428
280.134
275.425
294.725
291.365
286.926
281.688
275.953
300.713
296.374
290.7
284.04
276.754
307.705
302.173
295.056
286.765
277.69
315.51
308.553
299.84
289.799
278.759
322.415
314.055
303.957
292.48
279.762
326.383
317.127
306.235
293.986
280.348
294.609
291.258
286.841
281.634
275.934
300.004
295.772
290.24
283.751
276.655
305.957
300.719
293.956
286.07
277.448
311.931
305.635
297.638
288.38
278.247
316.862
309.64
300.627
290.271
278.913
319.553
311.789
302.219
291.282
279.275
365.931
347.842
303.514
296.836
300.365
296.805
301.824
372.132
370.156
348.294
360.459
326.94
339.011
320.209
324.481
317.78
365.845
339.668
322.968
318.194
326.764
321.149
312.149
311.171
310.135
305.907
315.715
311.984
364.144
341.994
352.405
331.608
325.055
338.801
313.29
306.103
316.785
347.556
331.601
317.517
302.625
285.053
336.581
324.892
312.167
298.261
282.352
300.463
296.181
290.561
283.954
276.724
294.499
291.184
286.794
281.606
275.925
297.679
293.869
288.826
282.871
276.354
294.48
291.175
286.79
281.605
275.924
298.975
294.95
289.638
283.377
276.526
355.217
338.181
322.486
305.588
286.187
353.919
336.891
320.844
303.448
283.82
338.577
327.103
313.692
298.681
282.044
347.251
331.854
316.726
300.258
282.429
321.016
313.132
303.212
291.812
279.408
331.117
321.172
309.128
295.515
280.708
315.247
308.46
299.749
289.649
278.659
318.962
311.495
301.996
291.036
279.131
313.141
306.74
298.471
288.852
278.384
350.081
334.325
319.712
303.849
285.594
331.502
321.533
309.628
296.148
281.148
317.599
310.371
301.191
290.581
278.996
313.429
306.946
298.644
289.002
278.456
320.775
312.93
303.139
291.876
279.491
315.947
308.99
300.187
290
278.817
308.081
302.503
295.314
286.929
277.747
307.273
301.865
294.836
286.616
277.632
306.402
301.168
294.315
286.28
277.511
302.632
298.018
291.95
284.813
277.013
311.31
305.225
297.349
288.168
278.157
308.01
302.487
295.303
286.902
277.727
347.342
331.796
317.792
302.799
285.281
332.463
321.894
309.946
296.665
281.59
341.112
328.166
314.835
300.039
282.95
324.606
315.907
305.405
293.449
280.135
319.23
311.635
302.183
291.306
279.301
330.693
320.878
309.195
295.962
281.121
309.11
303.371
295.967
287.332
277.882
302.787
298.136
292.035
284.869
277.034
312.18
305.909
297.871
288.525
278.295
279.805
292.992
305.139
315.751
324.229
330.638
484.285
478.37
454.905
460.678
468.85
459.93
445.405
434.939
503.641
519.067
497.259
511.082
487.993
479.489
499.43
474.484
469.695
446.878
451.516
461.647
453.786
438.987
430.021
493.651
504.735
488.085
497.786
479.472
471.612
487.659
460.87
457.381
435.681
439.069
451.144
444.793
429.602
422.053
478.43
489.098
473.999
483.621
467.412
460.797
475.419
446.831
444.269
423.986
426.563
439.321
433.873
419.117
412.641
464.07
475.366
460.523
470.888
455.191
448.88
463.655
436.671
434.607
415.474
417.642
430.343
425.648
411.247
405.344
453.228
465.3
450.217
461.721
445.94
440.389
455.445
429.794
427.975
409.667
411.628
424.172
420.087
405.767
400.294
446.104
459.84
443.358
456.363
439.828
434.906
450.095
405.39
402.308
427.919
432.198
398.035
392.737
420.96
412.453
383.034
362.753
382.127
364.457
378.465
377.935
367.148
401.191
398.321
422.119
425.837
394.329
389.399
415.961
408.087
378.522
358.999
377.769
360.849
374.343
374.259
363.308
394.514
391.988
413.479
416.469
388.454
383.949
408.373
401.592
373.925
354.381
373.11
356.044
370.008
369.85
358.286
386.27
384.08
403.731
406.164
380.794
376.312
399.439
393.124
367.212
348.649
366.506
350.106
363.694
363.474
352.338
379.7
377.716
396.384
398.516
374.773
370.539
392.538
386.742
361.495
344.396
360.879
345.484
358.556
358.263
347.717
375.02
373.175
391.297
393.262
370.615
366.852
387.715
382.35
357.862
341.521
357.366
342.575
355.282
355.159
345.011
538.989
555.322
527.861
547.641
512.614
537.897
486.283
516.3
485.88
509.634
509.42
532.653
523.681
543.749
533.702
551.593
503.844
483.59
523.897
494.618
475.678
454.572
495.725
464.301
546.994
554.448
559.843
563.898
536.214
545.608
553.108
559.064
536.661
521.315
514.112
504
533.03
547.177
543.287
542.975
504.884
509.081
519.608
518.715
474.27
477.745
550.347
552.515
525.014
531.169
559.497
562.248
559.448
567.561
567.02
570.73
552.353
564.744
563.409
569.281
538.648
558.859
550.145
564.461
558.669
567.783
561.978
568.955
469.199
457.207
476.668
459.741
437.428
426.767
445.28
429.566
504.225
488.458
497.238
485.762
482.025
460.974
483.465
460.801
450.684
431.043
452.157
431.005
509.228
489.741
510.644
489.665
528.468
556.013
516.407
547.449
521.915
552.091
513.034
544.254
533.13
558.276
518.053
549.137
534.613
559.107
518.2
549.898
552.961
540.004
563.889
554.381
542.824
529.934
559.79
549.008
528.085
516.149
552.855
541.318
454.253
417.235
486.274
512.34
544.255
411.575
448.468
480.419
504.993
534.378
417.033
450.778
481.158
508.092
537.955
516.886
496.854
521.684
502.552
510.696
492.171
519.547
500.307
501.481
484.197
516.579
497.619
401.398
388.832
439.312
426.214
469.828
455.513
493.425
477.666
515.387
497.768
405.671
391.956
440.784
429.92
471.431
459.891
497.298
483.784
519.087
503.82
444.681
439.148
443.223
438.111
410.231
391.378
410.246
390.623
473.587
471.74
475.108
471.887
440.83
437.079
440.778
437.268
409.499
390.643
409.638
390.945
470.897
470.719
470.839
470.991
501.607
499.693
524.203
521.518
501.806
498.088
523.561
518.647
500.3
499.521
524.256
522.369
498.987
498.72
523.147
521.377
475.716
459.818
451.685
478.728
461.565
453.122
472.522
456.41
447.946
476.684
458.96
450.094
464.89
448.727
440.174
473.945
454.932
445.354
375.492
366.237
361.83
411.134
398.154
391.25
438.738
422.825
413.957
458.434
441.102
431.954
472.907
451.73
440.84
377.162
365.624
360.028
416.796
402.718
395.116
444.131
426.704
416.808
463.603
442.705
431.155
475.714
451.609
438.821
408.341
399.469
414.05
405.273
440.281
424.953
450.931
432.671
383.834
361.205
385.004
363.14
385.205
363.978
387.081
366.068
386.766
382.813
386.167
380.65
367.455
371.1
409.482
412.354
438.249
441.117
390.122
394.596
390.095
392.828
374.224
377.478
339.12
321.359
344.467
324.692
341.777
321.963
347.029
325.748
346.068
322.782
353.146
327.735
357.074
330.865
359.021
332.796
381.999
372.575
389.568
376.136
407.891
397.56
415.492
400.882
368.76
355.003
361.465
351.497
393.903
378.15
395.8
378.8
420.16
402.695
421.833
402.996
372.888
357.085
374.901
357.922
348.877
325.123
337.823
319.522
342.228
321.132
334.634
317.195
352.941
328.115
339.775
321.044
355.173
330.172
340.667
321.894
322.652
311.653
314.781
307.572
325.007
314.423
315.155
308.362
329.481
320.464
316.167
310.566
362.917
386.397
345.528
332.614
316.139
381.393
358.256
339.017
326.748
312.449
386.115
362.845
344.262
329.763
314.354
302.7
294.535
300.58
293.168
305.777
297.451
301.955
294.618
311.774
303.172
304.639
297.293
371.081
359.11
348.423
337.142
331.472
321.729
319.494
310.36
307.879
300.442
374.596
360.091
352.246
338.735
335.408
323.736
322.289
311.619
309.886
301.668
356.522
338.628
359.722
340.752
379.501
359.672
382.069
360.561
341.656
325.89
338.664
323.619
362.405
342.127
363.153
342.769
383.875
361.08
384.373
361.57
344.344
327.487
345.113
328.077
325.744
312.38
311.584
301.417
324.099
310.642
310.786
300.732
327.191
313.655
312.128
301.682
328.725
314.39
313.056
302.556
286.142
282.116
280.55
281.375
278.172
277.094
289.26
284.767
282.992
282.833
279.477
278.242
294.974
289.97
287.902
285.155
281.18
279.66
347.41
339.694
336.143
326.886
320.535
317.81
312.524
306.779
304.511
300.99
295.031
292.459
286.884
282.133
280.248
346.219
336.427
332.175
326.409
317.88
314.22
312.569
305.046
301.942
300.228
293.617
291.097
285.907
281.413
279.66
307.266
297.956
291.828
287.229
308.727
298.498
291.96
287.168
307.372
298.053
291.941
287.331
309.27
298.793
292.197
287.373
307.359
298.14
292.214
287.651
309.691
299.082
292.573
287.725
311.101
299.802
292.729
287.666
312.294
300.547
293.089
287.842
308.776
298.924
292.681
287.919
306.914
298.514
292.785
288.404
306.958
298.141
292.468
288.048
305.834
297.956
292.545
288.412
310.275
299.661
292.92
287.945
307.815
299.03
293.047
288.559
311.464
300.342
293.275
288.194
308.566
299.512
293.371
288.844
304.887
297.131
291.705
287.465
302.074
296.197
291.554
287.832
304.909
297.178
291.801
287.577
302.309
296.308
291.627
287.912
305.051
297.295
291.993
287.813
302.968
296.59
291.794
288.062
304.894
297.357
292.192
288.143
303.498
296.853
292.004
288.285
304.664
297.426
292.358
288.488
299.803
295.516
291.269
288.483
298.476
295.177
291.168
288.7
300.29
295.7
291.369
288.562
299.019
295.377
291.262
288.761
301.171
296.043
291.527
288.667
299.936
295.729
291.415
288.86
302.243
296.494
291.795
288.851
300.985
296.165
291.635
289.004
303.27
297.017
292.124
289.055
301.872
296.63
291.891
289.178
304.696
297.982
292.646
289.37
303.162
297.599
292.515
289.614
304.033
297.516
292.378
289.199
302.536
297.123
292.193
289.383
305.273
298.419
292.885
289.533
303.767
298.08
292.826
289.847
305.871
298.855
293.186
289.772
304.402
298.558
293.159
290.107
283.1
280.291
278.303
277.047
276.441
283.094
280.297
278.308
277.05
276.444
283.157
280.32
278.318
277.056
276.448
283.169
280.336
278.329
277.063
276.453
283.232
280.356
278.337
277.067
276.456
283.254
280.38
278.354
277.077
276.463
283.357
280.441
278.389
277.098
276.478
283.506
280.528
278.439
277.129
276.5
283.33
280.409
278.367
277.085
276.469
283.427
280.44
278.381
277.093
276.474
283.295
280.382
278.35
277.074
276.461
283.38
280.411
278.364
277.082
276.466
283.422
280.464
278.399
277.104
276.482
283.514
280.49
278.41
277.11
276.486
283.565
280.545
278.446
277.132
276.503
283.64
280.561
278.45
277.135
276.504
283.12
280.288
278.299
277.044
276.439
283.145
280.287
278.296
277.042
276.438
283.164
280.31
278.31
277.05
276.444
283.178
280.304
278.305
277.047
276.441
283.233
280.341
278.327
277.06
276.451
283.236
280.331
278.319
277.055
276.447
283.31
280.373
278.343
277.069
276.457
283.299
280.363
278.337
277.065
276.454
283.35
280.392
278.353
277.075
276.461
528.861
525.91
528.455
525.518
528.181
525.4
528.765
526.104
531.215
528.619
535.942
536.338
534.57
534.04
536.485
537.22
536.637
537.231
564.107
571.098
572.571
572.904
572.976
556.524
569.019
572.099
572.802
572.952
564.129
571.113
572.575
572.905
572.976
556.595
569.057
572.107
572.805
572.952
564.196
571.142
572.584
572.907
572.976
556.702
569.102
572.12
572.809
572.953
564.489
571.219
572.602
572.911
572.977
557.071
569.203
572.144
572.814
572.955
565.154
571.361
572.632
572.918
572.979
557.91
569.391
572.184
572.822
572.956
565.756
571.439
572.644
572.92
572.979
559.992
569.809
572.267
572.838
572.96