/*--------------------------------*- C++ -*----------------------------------*\
  =========                 |
  \\      /  F ield         | OpenFOAM: The Open Source CFD Toolbox
   \\    /   O peration     | Website:  https://openfoam.org
    \\  /    A nd           | Version:  11
     \\/     M anipulation  |
\*---------------------------------------------------------------------------*/
FoamFile
{
    format      ascii;
    class       volScalarField;
    location    "3";
    object      epsilon;
}
// * * * * * * * * * * * * * * * * * * * * * * * * * * * * * * * * * * * * * //

dimensions      [0 2 -3 0 0 0 0];

internalField   nonuniform List<scalar> 
700
(
0.000152481
0.000152481
0.000152481
0.000152481
0.000152481
0.000152481
0.000152481
0.000152481
0.000152481
0.000152481
0.000152481
0.000152481
0.000152481
0.000152481
0.000152481
0.000152481
0.000152481
0.000152481
0.000152481
0.000152481
0.000152481
0.000152481
0.000152481
0.000152481
0.000152481
0.000152481
0.000152481
0.000152481
0.000152481
0.000152481
0.000152481
0.000152481
0.000152481
0.000152481
0.000152481
0.000152481
0.000152481
0.000152481
0.000152481
0.000152481
0.000152481
0.000152481
0.000152481
0.000152481
0.000152481
0.000152481
0.000152481
0.000152481
0.000152481
0.000152481
0.000152481
0.000152481
0.000152481
0.000152481
0.000152481
0.000152481
0.000152481
0.000152481
0.000152481
0.000152481
0.000152481
0.000152481
0.000152481
0.000152481
0.000152481
0.000152481
0.000152481
0.000152481
0.000152481
0.000152481
0.000152482
0.000152481
0.000152481
0.000152481
0.000152481
0.000152481
0.000152481
0.000152481
0.000152481
0.00015248
0.000152518
0.000152496
0.000152485
0.000152482
0.000152481
0.000152481
0.000152482
0.000152481
0.000152477
0.000152464
0.000153701
0.000152914
0.000152585
0.000152499
0.000152487
0.000152493
0.000152503
0.000152495
0.00015239
0.000151972
0.000163149
0.000156547
0.000153477
0.000152663
0.000152518
0.000152533
0.000152559
0.000152537
0.000152442
0.000152517
0.000160029
0.00015698
0.00015406
0.000152922
0.000152578
0.000152516
0.000152538
0.000152553
0.000152497
0.000152443
0.000157041
0.000156454
0.000154304
0.000153188
0.000152709
0.00015254
0.000152506
0.000152525
0.000152536
0.000152518
0.000153483
0.000154988
0.000153999
0.000153266
0.000152834
0.000152615
0.000152522
0.000152495
0.000152499
0.000152506
0.000149357
0.000152482
0.000152891
0.000152884
0.000152757
0.000152636
0.000152554
0.000152509
0.00015249
0.000152487
0.000145394
0.000149422
0.000151106
0.000151951
0.000152323
0.00015246
0.000152496
0.000152496
0.00015249
0.000152485
0.000142608
0.000146859
0.00014937
0.000150871
0.000151705
0.000152134
0.000152337
0.000152425
0.000152459
0.00015247
0.000141817
0.000145857
0.000148614
0.000150351
0.000151377
0.000151944
0.000152235
0.000152374
0.000152433
0.000152453
0.000143426
0.000146937
0.000149312
0.000150778
0.000151623
0.000152079
0.00015231
0.000152425
0.000152486
0.000152525
0.000147965
0.000149956
0.000151125
0.000151813
0.000152186
0.000152379
0.00015249
0.000152588
0.000152729
0.000153009
0.000152362
0.000152021
0.000152129
0.000152284
0.000152392
0.000152456
0.000152499
0.000152542
0.000152597
0.000152657
0.000152502
0.000152417
0.000152406
0.00015243
0.000152456
0.000152475
0.00015249
0.000152507
0.000152527
0.000152545
0.000152524
0.000152498
0.000152481
0.000152477
0.000152478
0.000152481
0.000152485
0.000152491
0.000152497
0.000152502
0.000152509
0.000152499
0.00015249
0.000152485
0.000152483
0.000152482
0.000152483
0.000152484
0.000152486
0.000152487
0.000152493
0.00015249
0.000152487
0.000152484
0.000152482
0.000152482
0.000152481
0.000152482
0.000152482
0.000152482
0.000152485
0.000152484
0.000152483
0.000152482
0.000152481
0.000152481
0.000152481
0.000152481
0.000152481
0.000152481
0.000152482
0.000152482
0.000152482
0.000152481
0.000152481
0.000152481
0.000152481
0.000152481
0.000152481
0.000152481
0.000152481
0.000152481
0.000152481
0.000152481
0.000152481
0.000152481
0.000152481
0.000152481
0.000152481
0.000152481
0.000152481
0.000152481
0.000152481
0.000152481
0.000152481
0.000152481
0.000152481
0.000152481
0.000152481
0.000152481
0.000152481
0.000152481
0.000152481
0.000152481
0.000152481
0.000152481
0.000152481
0.000152481
0.000152481
0.000152481
0.000152481
0.000152481
0.000152481
0.000152481
0.000152481
0.000152481
0.000152481
0.000152481
0.000152481
0.000152481
0.000152481
0.000152481
0.000152481
0.000152481
0.000152481
0.000152481
0.000152481
0.000152481
0.000152481
0.000152481
0.000152481
0.000152481
0.000152481
0.000152481
0.000152481
0.000152481
0.000152481
0.000152481
0.000152481
0.000152481
0.000152481
0.000152481
0.000152481
0.000152481
0.000152481
0.000152481
0.000152481
0.000152481
0.000152481
0.000152481
0.000152481
0.000152481
0.000152481
0.000152481
0.000152481
0.000152481
0.000152481
0.000152481
0.000152481
0.000152481
0.000152481
0.000152481
0.000152481
0.000152481
0.000152481
0.000152481
0.000152481
0.000152481
0.000152481
0.000152481
0.000152481
0.000152481
0.000152481
0.000152481
0.000152481
0.000152481
0.000152481
0.000152481
0.000152481
0.000152481
0.000152481
0.000152481
0.000152481
0.000152481
0.000152481
0.000152481
0.000152481
0.000152481
0.000152481
0.000152481
0.000152481
0.000152481
0.000152481
0.000152481
0.000152481
0.000152481
0.000152481
0.000152481
0.000152481
0.000152481
0.000152481
0.000152481
0.000152481
0.000152481
0.000152481
0.000152481
0.000152481
0.000152481
0.000152481
0.000152481
0.000152894
0.00015302
0.000153176
0.000153336
0.000153466
0.000153546
0.000153573
0.000153527
0.000153436
0.000153334
0.000152647
0.000152736
0.000152837
0.000152914
0.000152937
0.000152905
0.000152828
0.000152729
0.000152634
0.00015255
0.000152561
0.000152609
0.000152654
0.000152671
0.000152652
0.000152606
0.000152552
0.000152505
0.000152472
0.000152456
0.000152522
0.000152544
0.00015256
0.000152556
0.000152535
0.000152508
0.000152485
0.000152472
0.000152468
0.00015247
0.000152516
0.000152524
0.000152521
0.000152511
0.000152496
0.000152484
0.000152478
0.000152476
0.000152477
0.00015248
0.000152544
0.000152551
0.00015253
0.000152508
0.000152491
0.000152482
0.000152478
0.000152477
0.000152478
0.00015248
0.000152628
0.000152664
0.000152608
0.000152548
0.000152508
0.000152486
0.000152475
0.000152471
0.000152472
0.000152478
0.000152819
0.000152968
0.000152844
0.000152691
0.000152579
0.000152509
0.000152468
0.000152442
0.000152415
0.000152374
0.00015322
0.000153686
0.000153448
0.00015311
0.000152838
0.000152639
0.000152484
0.00015231
0.000151991
0.000151452
0.000153709
0.00015518
0.000155037
0.000154636
0.000154283
0.000153991
0.00015367
0.000153016
0.000151174
0.000146387
0.000152671
0.000152584
0.00015253
0.000152502
0.000152489
0.000152477
0.000152446
0.00015234
0.000152003
0.000150963
0.000152546
0.000152524
0.000152503
0.000152488
0.000152476
0.000152456
0.000152411
0.000152311
0.000152115
0.000151829
0.000152502
0.000152496
0.000152489
0.000152482
0.000152475
0.000152461
0.000152432
0.000152378
0.000152294
0.000152208
0.000152487
0.000152485
0.000152483
0.000152481
0.000152477
0.00015247
0.000152456
0.000152433
0.000152402
0.000152376
0.000152482
0.000152482
0.000152481
0.00015248
0.000152479
0.000152476
0.000152471
0.000152463
0.000152452
0.000152444
0.000152481
0.000152481
0.000152481
0.000152481
0.00015248
0.000152479
0.000152477
0.000152475
0.000152472
0.000152469
0.000152481
0.000152481
0.000152481
0.000152481
0.000152481
0.00015248
0.00015248
0.000152479
0.000152478
0.000152478
0.000152481
0.000152481
0.000152481
0.000152481
0.000152481
0.000152481
0.000152481
0.00015248
0.00015248
0.00015248
0.000152481
0.000152481
0.000152481
0.000152481
0.000152481
0.000152481
0.000152481
0.000152481
0.000152481
0.000152481
0.000152481
0.000152481
0.000152481
0.000152481
0.000152481
0.000152481
0.000152481
0.000152481
0.000152481
0.000152481
0.000152481
0.000152481
0.000152481
0.000152481
0.000152481
0.000152481
0.000152481
0.000152481
0.000152481
0.000152481
0.000152481
0.000152481
0.000152481
0.000152481
0.000152481
0.000152481
0.000152481
0.000152481
0.000152481
0.000152481
0.000152481
0.000152481
0.000152481
0.000152481
0.000152481
0.000152481
0.000152481
0.000152481
0.000152481
0.000152481
0.000152481
0.000152481
0.000152481
0.000152481
0.000152481
0.000152481
0.000152481
0.000152481
0.000152481
0.000152481
0.000152481
0.000152481
0.000152481
0.000152481
0.000152481
0.000152481
0.000152481
0.000152481
0.000152481
0.000152481
0.000152481
0.000152481
0.000152481
0.000152481
0.000152481
0.000152481
0.000152481
0.000152481
0.000152481
0.000152481
0.000152481
0.000152481
0.000152481
0.000152481
0.000152481
0.000152481
0.000152481
0.000152481
0.000152481
0.000152481
0.000152481
0.000152481
0.000152481
0.000152481
0.000152481
0.000152481
0.000152481
0.000152481
0.000152481
0.000152481
0.000152481
0.000152481
0.000152481
0.000152481
0.000152481
0.000152481
0.000152481
0.000152481
0.000152481
0.000152481
0.000152481
0.000152481
0.000152481
0.000152481
0.000152481
0.000152481
0.000152481
0.000152481
0.000152481
0.000152481
)
;

boundaryField
{
    defaultFaces
    {
        type            empty;
    }
}


// ************************************************************************* //
