/*--------------------------------*- C++ -*----------------------------------*\
  =========                 |
  \\      /  F ield         | OpenFOAM: The Open Source CFD Toolbox
   \\    /   O peration     | Website:  https://openfoam.org
    \\  /    A nd           | Version:  11
     \\/     M anipulation  |
\*---------------------------------------------------------------------------*/
FoamFile
{
    format      ascii;
    class       volScalarField;
    location    "3";
    object      k;
}
// * * * * * * * * * * * * * * * * * * * * * * * * * * * * * * * * * * * * * //

dimensions      [0 2 -2 0 0 0 0];

internalField   nonuniform List<scalar> 
700
(
0.000498218
0.000498218
0.000498218
0.000498218
0.000498218
0.000498218
0.000498218
0.000498218
0.000498218
0.000498218
0.000498218
0.000498218
0.000498218
0.000498218
0.000498218
0.000498218
0.000498218
0.000498218
0.000498218
0.000498218
0.000498218
0.000498218
0.000498218
0.000498218
0.000498218
0.000498218
0.000498218
0.000498218
0.000498218
0.000498218
0.000498218
0.000498218
0.000498218
0.000498218
0.000498218
0.000498218
0.000498218
0.000498218
0.000498218
0.000498218
0.000498218
0.000498218
0.000498218
0.000498218
0.000498218
0.000498218
0.000498218
0.000498218
0.000498218
0.000498218
0.000498218
0.000498218
0.000498218
0.000498218
0.000498218
0.000498218
0.000498218
0.000498218
0.000498218
0.000498218
0.000498218
0.000498218
0.000498218
0.000498218
0.000498218
0.000498218
0.000498218
0.000498218
0.000498218
0.000498218
0.000498222
0.00049822
0.000498219
0.000498218
0.000498218
0.000498218
0.000498218
0.000498218
0.000498218
0.000498217
0.000498372
0.000498287
0.000498238
0.000498223
0.00049822
0.00049822
0.000498222
0.000498219
0.000498199
0.000498153
0.000502773
0.000499948
0.000498672
0.000498307
0.000498245
0.000498262
0.000498288
0.000498233
0.00049782
0.000496365
0.000535668
0.000513128
0.000502158
0.000499019
0.000498375
0.000498348
0.000498333
0.000498124
0.000497676
0.000497811
0.000525142
0.000514647
0.000504334
0.000500066
0.000498675
0.000498372
0.000498377
0.000498327
0.000498011
0.000497695
0.000514443
0.000512491
0.000505112
0.000501062
0.000499217
0.000498525
0.000498358
0.000498374
0.000498338
0.000498173
0.000501737
0.000506924
0.000503746
0.000501236
0.000499661
0.000498817
0.000498438
0.000498317
0.000498304
0.000498283
0.000487236
0.000497812
0.000499467
0.00049962
0.000499258
0.000498844
0.000498538
0.00049836
0.00049828
0.000498251
0.000473479
0.000486964
0.000492877
0.000496001
0.000497473
0.000498067
0.000498252
0.000498277
0.000498259
0.00049824
0.000463905
0.000478018
0.000486612
0.000491945
0.000495045
0.000496722
0.000497563
0.000497951
0.000498113
0.000498173
0.000461248
0.000474595
0.000483942
0.000490036
0.000493786
0.000495955
0.00049713
0.000497724
0.000498002
0.000498116
0.000466864
0.000478456
0.000486505
0.000491653
0.000494755
0.000496512
0.000497449
0.000497932
0.000498192
0.00049836
0.000482412
0.000489027
0.00049306
0.000495545
0.000496963
0.000497728
0.000498157
0.000498475
0.000498819
0.000499262
0.000497299
0.00049626
0.000496729
0.000497357
0.000497808
0.000498078
0.000498246
0.000498386
0.000498532
0.000498665
0.000498057
0.000497811
0.000497828
0.000497959
0.000498085
0.000498174
0.000498239
0.000498296
0.000498355
0.000498401
0.000498287
0.000498211
0.000498173
0.000498176
0.000498194
0.000498213
0.000498231
0.00049825
0.00049827
0.000498284
0.000498297
0.000498269
0.000498242
0.000498227
0.000498222
0.000498222
0.000498225
0.000498229
0.000498235
0.00049824
0.000498262
0.000498252
0.000498239
0.000498229
0.000498224
0.000498221
0.000498221
0.000498222
0.000498223
0.000498224
0.000498237
0.000498233
0.000498228
0.000498224
0.000498221
0.00049822
0.000498219
0.000498219
0.00049822
0.00049822
0.000498225
0.000498224
0.000498222
0.00049822
0.000498219
0.000498219
0.000498219
0.000498219
0.000498219
0.000498219
0.00049822
0.00049822
0.000498219
0.000498219
0.000498219
0.000498218
0.000498218
0.000498218
0.000498218
0.000498218
0.000498219
0.000498219
0.000498219
0.000498218
0.000498218
0.000498218
0.000498218
0.000498218
0.000498218
0.000498218
0.000498218
0.000498218
0.000498218
0.000498218
0.000498218
0.000498218
0.000498218
0.000498218
0.000498218
0.000498218
0.000498218
0.000498218
0.000498218
0.000498218
0.000498218
0.000498218
0.000498218
0.000498218
0.000498218
0.000498218
0.000498218
0.000498218
0.000498218
0.000498218
0.000498218
0.000498218
0.000498218
0.000498218
0.000498218
0.000498218
0.000498218
0.000498218
0.000498218
0.000498218
0.000498218
0.000498218
0.000498218
0.000498218
0.000498218
0.000498218
0.000498218
0.000498218
0.000498218
0.000498218
0.000498218
0.000498218
0.000498218
0.000498218
0.000498218
0.000498218
0.000498218
0.000498218
0.000498218
0.000498218
0.000498218
0.000498218
0.000498218
0.000498218
0.000498218
0.000498218
0.000498218
0.000498218
0.000498218
0.000498218
0.000498218
0.000498218
0.000498218
0.000498218
0.000498218
0.000498218
0.000498218
0.000498218
0.000498218
0.000498218
0.000498218
0.000498218
0.000498218
0.000498218
0.000498218
0.000498218
0.000498218
0.000498218
0.000498218
0.000498218
0.000498218
0.000498218
0.000498218
0.000498218
0.000498218
0.000498218
0.000498218
0.000498218
0.000498218
0.000498218
0.000498218
0.000498218
0.000498218
0.000498218
0.000498218
0.000498218
0.000498218
0.000498218
0.000498218
0.000498218
0.000498218
0.000498218
0.000498218
0.000498218
0.000498218
0.000498218
0.000499013
0.000499182
0.000499371
0.000499551
0.000499688
0.000499767
0.000499773
0.000499717
0.000499624
0.000499518
0.000498651
0.000498827
0.000499003
0.000499118
0.000499137
0.000499065
0.000498932
0.000498774
0.000498615
0.000498464
0.000498451
0.000498569
0.000498671
0.000498705
0.000498654
0.000498546
0.000498421
0.000498308
0.000498218
0.000498155
0.000498356
0.000498416
0.000498452
0.000498439
0.00049838
0.000498305
0.000498241
0.000498199
0.00049818
0.000498178
0.000498358
0.000498381
0.000498365
0.000498325
0.000498276
0.000498235
0.000498212
0.000498204
0.000498207
0.000498219
0.000498478
0.000498511
0.000498431
0.000498339
0.00049827
0.000498231
0.000498212
0.000498206
0.000498208
0.000498218
0.000498795
0.000498955
0.000498756
0.000498521
0.000498354
0.000498257
0.000498207
0.000498185
0.000498182
0.000498188
0.000499483
0.000500079
0.000499664
0.000499098
0.000498665
0.000498384
0.000498208
0.000498084
0.00049794
0.000497714
0.000500861
0.000502591
0.000501845
0.000500666
0.00049968
0.000498944
0.000498342
0.000497626
0.000496349
0.000494365
0.000502506
0.000507602
0.000507215
0.000505852
0.000504609
0.000503558
0.000502351
0.000499885
0.000493337
0.00047745
0.000498688
0.000498503
0.000498364
0.000498289
0.000498252
0.000498218
0.00049812
0.00049778
0.000496686
0.000493298
0.000498404
0.000498346
0.000498287
0.000498241
0.000498199
0.000498127
0.000497968
0.000497624
0.000496966
0.000496024
0.000498284
0.000498266
0.000498243
0.000498221
0.000498191
0.000498136
0.000498027
0.000497831
0.000497538
0.000497246
0.000498239
0.000498234
0.000498226
0.000498216
0.0004982
0.000498171
0.000498116
0.000498027
0.000497913
0.000497818
0.000498224
0.000498223
0.00049822
0.000498216
0.00049821
0.000498197
0.000498174
0.00049814
0.000498099
0.000498069
0.00049822
0.000498219
0.000498219
0.000498217
0.000498215
0.00049821
0.000498202
0.00049819
0.000498177
0.000498168
0.000498219
0.000498219
0.000498218
0.000498218
0.000498217
0.000498216
0.000498213
0.00049821
0.000498206
0.000498203
0.000498218
0.000498218
0.000498218
0.000498218
0.000498218
0.000498218
0.000498217
0.000498216
0.000498215
0.000498214
0.000498218
0.000498218
0.000498218
0.000498218
0.000498218
0.000498218
0.000498218
0.000498218
0.000498217
0.000498217
0.000498218
0.000498218
0.000498218
0.000498218
0.000498218
0.000498218
0.000498218
0.000498218
0.000498218
0.000498218
0.000498218
0.000498218
0.000498218
0.000498218
0.000498218
0.000498218
0.000498218
0.000498218
0.000498218
0.000498218
0.000498218
0.000498218
0.000498218
0.000498218
0.000498218
0.000498218
0.000498218
0.000498218
0.000498218
0.000498218
0.000498218
0.000498218
0.000498218
0.000498218
0.000498218
0.000498218
0.000498218
0.000498218
0.000498218
0.000498218
0.000498218
0.000498218
0.000498218
0.000498218
0.000498218
0.000498218
0.000498218
0.000498218
0.000498218
0.000498218
0.000498218
0.000498218
0.000498218
0.000498218
0.000498218
0.000498218
0.000498218
0.000498218
0.000498218
0.000498218
0.000498218
0.000498218
0.000498218
0.000498218
0.000498218
0.000498218
0.000498218
0.000498218
0.000498218
0.000498218
0.000498218
0.000498218
0.000498218
0.000498218
0.000498218
0.000498218
0.000498218
0.000498218
0.000498218
0.000498218
0.000498218
0.000498218
0.000498218
0.000498218
0.000498218
0.000498218
0.000498218
0.000498218
0.000498218
0.000498218
0.000498218
0.000498218
0.000498218
0.000498218
0.000498218
0.000498218
0.000498218
0.000498218
0.000498218
0.000498218
0.000498218
0.000498218
0.000498218
0.000498218
0.000498218
0.000498218
0.000498218
0.000498218
0.000498218
0.000498218
)
;

boundaryField
{
    defaultFaces
    {
        type            empty;
    }
}


// ************************************************************************* //
