/*--------------------------------*- C++ -*----------------------------------*\
  =========                 |
  \\      /  F ield         | OpenFOAM: The Open Source CFD Toolbox
   \\    /   O peration     | Website:  https://openfoam.org
    \\  /    A nd           | Version:  11
     \\/     M anipulation  |
\*---------------------------------------------------------------------------*/
FoamFile
{
    format      ascii;
    class       volScalarField;
    location    "3";
    object      nut;
}
// * * * * * * * * * * * * * * * * * * * * * * * * * * * * * * * * * * * * * //

dimensions      [0 2 -1 0 0 0 0];

internalField   nonuniform List<scalar> 
700
(
0.00014651
0.00014651
0.00014651
0.00014651
0.00014651
0.00014651
0.00014651
0.00014651
0.00014651
0.00014651
0.00014651
0.00014651
0.00014651
0.00014651
0.00014651
0.00014651
0.00014651
0.00014651
0.00014651
0.00014651
0.00014651
0.00014651
0.00014651
0.00014651
0.00014651
0.00014651
0.00014651
0.00014651
0.00014651
0.00014651
0.00014651
0.00014651
0.00014651
0.00014651
0.00014651
0.00014651
0.00014651
0.00014651
0.00014651
0.00014651
0.00014651
0.00014651
0.00014651
0.00014651
0.00014651
0.00014651
0.00014651
0.00014651
0.00014651
0.00014651
0.00014651
0.00014651
0.00014651
0.00014651
0.00014651
0.00014651
0.00014651
0.00014651
0.00014651
0.00014651
0.00014651
0.00014651
0.00014651
0.00014651
0.00014651
0.00014651
0.00014651
0.00014651
0.00014651
0.00014651
0.000146511
0.000146511
0.00014651
0.00014651
0.00014651
0.00014651
0.00014651
0.00014651
0.00014651
0.000146509
0.000146564
0.000146535
0.000146517
0.000146512
0.00014651
0.000146511
0.000146511
0.00014651
0.000146503
0.000146487
0.000148017
0.000147111
0.000146676
0.000146544
0.00014652
0.000146524
0.000146529
0.000146504
0.000146363
0.000145909
0.000158289
0.000151373
0.000147869
0.000146805
0.000146566
0.000146536
0.000146502
0.000146401
0.000146228
0.000146236
0.000155094
0.000151851
0.00014859
0.000147172
0.000146685
0.000146567
0.000146549
0.000146504
0.000146372
0.000146238
0.000151671
0.000151087
0.000148812
0.000147503
0.000146878
0.000146633
0.000146568
0.000146559
0.000146527
0.000146448
0.000147617
0.000149221
0.000148302
0.00014753
0.000147019
0.000146733
0.0001466
0.000146554
0.000146543
0.000146524
0.000143053
0.00014627
0.00014685
0.000146947
0.000146856
0.000146728
0.000146627
0.000146566
0.000146537
0.000146524
0.000138771
0.000142831
0.00014469
0.000145715
0.000146223
0.000146441
0.000146515
0.000146529
0.000146525
0.000146519
0.000135818
0.000140033
0.000142674
0.000144368
0.000145389
0.000145963
0.000146263
0.000146406
0.000146469
0.000146493
0.000135015
0.000138983
0.00014183
0.000143744
0.000144964
0.000145695
0.000146106
0.000146322
0.000146428
0.000146476
0.000136772
0.000140215
0.000142667
0.000144285
0.000145297
0.000145892
0.000146221
0.000146395
0.000146489
0.00014655
0.000141553
0.00014353
0.000144779
0.000145579
0.000146055
0.000146319
0.000146465
0.000146557
0.000146625
0.000146616
0.000146083
0.0001458
0.000145972
0.000146192
0.000146353
0.000146451
0.000146509
0.000146549
0.000146583
0.000146603
0.000146394
0.000146332
0.000146352
0.000146406
0.000146455
0.00014649
0.000146513
0.00014653
0.000146545
0.000146556
0.000146509
0.000146489
0.000146483
0.000146489
0.000146498
0.000146506
0.000146513
0.000146519
0.000146524
0.000146528
0.000146529
0.000146522
0.000146514
0.000146511
0.00014651
0.000146511
0.000146512
0.000146513
0.000146515
0.000146516
0.000146523
0.00014652
0.000146516
0.000146513
0.000146512
0.000146511
0.000146511
0.000146511
0.000146512
0.000146512
0.000146516
0.000146515
0.000146513
0.000146512
0.000146511
0.00014651
0.00014651
0.00014651
0.00014651
0.00014651
0.000146512
0.000146512
0.000146511
0.000146511
0.00014651
0.00014651
0.00014651
0.00014651
0.00014651
0.00014651
0.000146511
0.00014651
0.00014651
0.00014651
0.00014651
0.00014651
0.00014651
0.00014651
0.00014651
0.00014651
0.00014651
0.00014651
0.00014651
0.00014651
0.00014651
0.00014651
0.00014651
0.00014651
0.00014651
0.00014651
0.00014651
0.00014651
0.00014651
0.00014651
0.00014651
0.00014651
0.00014651
0.00014651
0.00014651
0.00014651
0.00014651
0.00014651
0.00014651
0.00014651
0.00014651
0.00014651
0.00014651
0.00014651
0.00014651
0.00014651
0.00014651
0.00014651
0.00014651
0.00014651
0.00014651
0.00014651
0.00014651
0.00014651
0.00014651
0.00014651
0.00014651
0.00014651
0.00014651
0.00014651
0.00014651
0.00014651
0.00014651
0.00014651
0.00014651
0.00014651
0.00014651
0.00014651
0.00014651
0.00014651
0.00014651
0.00014651
0.00014651
0.00014651
0.00014651
0.00014651
0.00014651
0.00014651
0.00014651
0.00014651
0.00014651
0.00014651
0.00014651
0.00014651
0.00014651
0.00014651
0.00014651
0.00014651
0.00014651
0.00014651
0.00014651
0.00014651
0.00014651
0.00014651
0.00014651
0.00014651
0.00014651
0.00014651
0.00014651
0.00014651
0.00014651
0.00014651
0.00014651
0.00014651
0.00014651
0.00014651
0.00014651
0.00014651
0.00014651
0.00014651
0.00014651
0.00014651
0.00014651
0.00014651
0.00014651
0.00014651
0.00014651
0.00014651
0.00014651
0.00014651
0.00014651
0.00014651
0.00014651
0.00014651
0.00014651
0.00014651
0.00014651
0.00014651
0.00014651
0.00014651
0.00014651
0.00014651
0.00014651
0.00014651
0.00014651
0.00014651
0.00014658
0.000146559
0.000146521
0.000146473
0.000146429
0.000146399
0.000146377
0.000146388
0.00014642
0.000146456
0.000146605
0.000146622
0.000146629
0.000146623
0.000146612
0.000146601
0.000146596
0.000146597
0.000146596
0.000146588
0.00014657
0.000146593
0.00014661
0.000146613
0.000146602
0.000146583
0.000146561
0.000146539
0.000146518
0.000146497
0.000146551
0.000146565
0.000146571
0.000146567
0.000146553
0.000146535
0.000146519
0.000146507
0.0001465
0.000146497
0.000146558
0.000146565
0.000146557
0.000146544
0.000146529
0.000146516
0.000146509
0.000146506
0.000146506
0.00014651
0.000146601
0.000146615
0.000146587
0.000146555
0.00014653
0.000146516
0.000146509
0.000146506
0.000146507
0.000146511
0.000146708
0.000146768
0.000146704
0.000146623
0.000146563
0.000146528
0.000146508
0.0001465
0.000146497
0.000146495
0.000146928
0.000147136
0.000147011
0.000146826
0.000146678
0.00014658
0.000146516
0.000146468
0.000146409
0.000146316
0.000147354
0.000147924
0.000147713
0.000147345
0.000147027
0.000146784
0.000146579
0.000146326
0.000145881
0.000145232
0.000147851
0.000149436
0.000149346
0.000148929
0.000148537
0.000148199
0.000147798
0.000146976
0.000144895
0.00014015
0.000146603
0.000146578
0.000146549
0.000146531
0.000146522
0.000146513
0.000146486
0.000146388
0.000146068
0.000145074
0.000146556
0.000146543
0.000146529
0.000146516
0.000146503
0.000146479
0.000146429
0.000146323
0.000146125
0.000145845
0.000146528
0.000146523
0.000146517
0.00014651
0.0001465
0.000146481
0.000146444
0.000146381
0.00014629
0.0001462
0.000146516
0.000146514
0.000146512
0.000146509
0.000146503
0.000146492
0.000146473
0.000146443
0.000146406
0.000146375
0.000146512
0.000146511
0.00014651
0.000146509
0.000146506
0.000146502
0.000146493
0.000146481
0.000146467
0.000146457
0.00014651
0.00014651
0.00014651
0.000146509
0.000146508
0.000146507
0.000146504
0.000146499
0.000146495
0.000146491
0.00014651
0.00014651
0.00014651
0.00014651
0.000146509
0.000146509
0.000146508
0.000146506
0.000146505
0.000146504
0.00014651
0.00014651
0.00014651
0.00014651
0.00014651
0.00014651
0.000146509
0.000146509
0.000146508
0.000146508
0.00014651
0.00014651
0.00014651
0.00014651
0.00014651
0.00014651
0.00014651
0.00014651
0.000146509
0.000146509
0.00014651
0.00014651
0.00014651
0.00014651
0.00014651
0.00014651
0.00014651
0.00014651
0.00014651
0.00014651
0.00014651
0.00014651
0.00014651
0.00014651
0.00014651
0.00014651
0.00014651
0.00014651
0.00014651
0.00014651
0.00014651
0.00014651
0.00014651
0.00014651
0.00014651
0.00014651
0.00014651
0.00014651
0.00014651
0.00014651
0.00014651
0.00014651
0.00014651
0.00014651
0.00014651
0.00014651
0.00014651
0.00014651
0.00014651
0.00014651
0.00014651
0.00014651
0.00014651
0.00014651
0.00014651
0.00014651
0.00014651
0.00014651
0.00014651
0.00014651
0.00014651
0.00014651
0.00014651
0.00014651
0.00014651
0.00014651
0.00014651
0.00014651
0.00014651
0.00014651
0.00014651
0.00014651
0.00014651
0.00014651
0.00014651
0.00014651
0.00014651
0.00014651
0.00014651
0.00014651
0.00014651
0.00014651
0.00014651
0.00014651
0.00014651
0.00014651
0.00014651
0.00014651
0.00014651
0.00014651
0.00014651
0.00014651
0.00014651
0.00014651
0.00014651
0.00014651
0.00014651
0.00014651
0.00014651
0.00014651
0.00014651
0.00014651
0.00014651
0.00014651
0.00014651
0.00014651
0.00014651
0.00014651
0.00014651
0.00014651
0.00014651
0.00014651
0.00014651
0.00014651
0.00014651
0.00014651
0.00014651
0.00014651
0.00014651
0.00014651
)
;

boundaryField
{
    defaultFaces
    {
        type            empty;
    }
}


// ************************************************************************* //
