/*--------------------------------*- C++ -*----------------------------------*\
  =========                 |
  \\      /  F ield         | OpenFOAM: The Open Source CFD Toolbox
   \\    /   O peration     | Website:  https://openfoam.org
    \\  /    A nd           | Version:  11
     \\/     M anipulation  |
\*---------------------------------------------------------------------------*/
FoamFile
{
    format      ascii;
    class       volScalarField;
    location    "1.8";
    object      gradTz;
}
// * * * * * * * * * * * * * * * * * * * * * * * * * * * * * * * * * * * * * //

dimensions      [0 -1 0 1 0 0 0];

internalField   nonuniform List<scalar> 
5712
(
7449.93
24465.7
5918.78
25083.2
4439.13
25922.8
6993.94
39899.9
8590.73
54845.1
8534.01
39982.5
8239.19
33204.4
8564.21
29680.3
5183.43
3219.73
13859.3
8241.12
5071.4
2738.49
15140
7519.98
5680.17
4134.42
18204.7
12851.6
4297.3
3110.61
17903.1
13046.7
10082.8
4274.84
8722.08
3895.86
4026.3
9424.68
34704.3
9395.17
12438.9
4190.67
44644
12104.4
11620.6
3993.68
24825.2
7697.8
12749
4438.72
21621.7
6869.19
6259.81
3103.71
9088.35
3550.64
6777.81
3661.09
8856.43
3409.35
8563.48
4887.39
7635.35
3329.19
11226.7
4043.77
3857.57
1349.62
12740.8
8872.1
7855.55
5762.64
14118.4
11629.7
7703.74
6667.4
7488.83
5095.41
10618.8
7159.45
5158.26
3801.12
2598.15
2136.44
4949.69
4275.9
2534.01
2449.9
4977.02
3283.42
2531.94
1632.48
6723.44
3664.17
5073.47
6090.29
9251.74
6588.37
7387.19
10453.5
4428.77
2104.33
2982.18
3477.62
2185.94
912.005
1281.26
1286.8
8333.91
14925.6
5637.53
16643.5
9743.8
14600.2
6921.69
17399.2
11035.3
13197.8
8887.43
16939.4
12772.4
15060.3
9756.81
9446.63
10296.5
15067
14111.1
14020.5
14464
20786.5
12254.4
9577.68
8392.61
9420.1
14657.9
17311.3
15485.7
20054
19325.1
15853.4
14714.9
19789
18908.3
13714.9
13401.7
18538.5
18203.4
11027.8
8691.45
10443.3
9153.83
11485.1
10357.1
12413.1
11989.5
17015.7
17500.6
10294.9
8979.91
9962.37
9692.98
10363.4
11111.9
11699.1
13259.3
15229.7
17752.6
8547.23
6720.93
5845.74
7408.71
11426.3
13855.7
7901.02
12455.4
5000.92
6538.04
7478.44
6183.29
1440.27
4907.01
727.004
1753.95
4027.9
8350.18
1469.9
2881.21
728.133
4193.22
387.489
1464.56
4937.77
5010.11
5615.39
3525.67
7836.35
6301.03
9213.62
6408.77
1197
2745.23
2792.27
1613.09
1541.7
1990.53
2171.58
1644.28
12368.1
7530
2378.4
13982.4
8046.44
2637.99
11868.3
7452.56
2522.89
13755
8055.05
2636.63
10917.8
6848.35
2255.36
13409
8088.1
2704.83
5754.01
3168.29
874.732
7459.49
4926.42
1707.65
8960.02
6177.08
2130.05
10398
6749.64
2244.3
13269.9
8300.4
2900.56
6790.17
3872.59
1247.1
7083.87
5110.42
1931.76
8462.67
6248.83
2300.73
10550.2
7412.91
2657.34
13431.8
8415.94
2992.83
299.003
2026.05
2866.63
4134.81
2224.2
2545.42
5577.46
5282.66
603.668
1025.65
644.418
1068.05
485.921
1410.29
868.118
1849.33
3220.26
1574.29
4075.87
2358.82
2160.66
3771.77
3416.87
888.483
6174.93
1470.68
-1994.76
647.327
1749.98
1277.17
1192.46
1069.47
9743.36
4401.09
2657.83
1629.45
9896.14
4571.3
3352.54
2065.69
9768.43
4914.55
4852.81
3367.91
3475.06
2478.05
1666.87
1593.48
12707.3
11279.4
5970.92
6188.51
13764
12905.4
6783
6830.69
5267.15
5413.15
10853.8
9045.17
3543.76
3712.74
1951.49
2237.3
4162.7
4136.57
2257.5
2428.96
3061.25
3310.45
1686.34
2106.86
4661.77
3220.01
4638.58
3243.71
7278.6
4238.71
6918.51
4489.81
2789.07
2327.89
2929.42
2091.59
1530.47
1444.77
1856.07
1223.61
11483.1
7862.18
5715.07
5722.55
11438.8
8079.06
5742.81
5696.34
11900.1
8458.31
5825.11
5549.73
13940.5
15147.7
12642.4
8401.64
4705.29
14353.7
13179.1
12160.7
9973.86
6338.06
13451
12075.6
9593.73
7334.42
4515.4
6554.6
5739.88
6057.91
6828.1
6807.09
5682.45
6141.44
6767.44
7178.6
5729.91
6240.34
6723.29
10827.1
7657.03
10004.2
6951.09
7804.93
6277.02
7236.01
6144.88
5815.28
6701.04
9001.36
7819.56
7891.98
6877.74
6678.72
6033.17
5830.1
5751.28
4567.05
6368.11
7054.36
4772.48
4684.64
2812.02
9287.98
7162.25
6447.51
5202.23
3792.71
2273.52
5506.01
4052.9
4719.74
2233.8
1710.75
982.207
5029.13
3645.85
1738.54
1442.84
4057.8
1803.2
1583.26
828.328
3113.67
2839.68
2692.22
3920.85
4337.09
4062.97
3425.68
5005.76
3171.66
2031.42
1963.47
2672.76
943.485
449.399
180.78
482.038
3948.19
1648.91
487.347
4508.1
1173.36
313.051
4026.6
1793.38
551.268
4519.09
1226.55
343.611
3817.1
1803.78
468.664
4474.17
1258.28
296.62
4754.64
2435.59
558.939
4218.94
2046.74
490.056
4063.16
1950.07
530.23
3963.98
1856.31
398.281
4488.77
1246.28
189.399
5981.49
3031.81
823.739
5303.6
2639.16
726.533
4753.94
2347.41
683.741
4435.22
1902.13
471.096
4874.22
1174.62
288.694
1697.29
604.392
126.384
-160.956
708.126
265.511
74.1513
-29.9874
1797.23
661.42
175.682
-94.7556
899.281
367.071
177.118
81.4642
1927.27
733.806
262.418
10.2659
1534.07
700.296
261.822
55.0731
1162.53
637.791
205.826
-22.4959
1075.56
686.019
380.306
215.949
1589.7
693.618
203.584
-156.123
1352.93
582.884
250.755
-150.491
1879.75
721.093
234.699
-101.035
1693.57
652.788
260.181
-244.433
1269.76
639.037
243.251
-53.3405
1034.75
510.258
265.871
1.5544
929.721
555.507
317.008
187.03
708.254
425.812
275.893
156.225
2148.36
727.652
129.784
-322.879
2106.73
667.805
188.922
-436.898
2146.58
738.009
147.733
-307.891
2042.69
649.919
195.678
-424.219
2105.99
740.152
220.347
-211.787
1910.37
615.468
236.98
-342.17
1848.62
684.023
297.627
-9.15401
2096.43
688.997
329.571
-397.594
1645.1
609.933
294.984
-89.9537
1652.56
469.011
167.134
-290.738
653.96
170.172
44.8301
-58.1407
1714.3
502.102
184.178
-276.496
684.487
184.588
56.6079
-45.6673
1756.21
539.641
224.176
-240.134
702.283
201.25
71.6103
-30.7743
1588.64
509.386
256.133
-185.837
685.875
208.357
97.4821
-4.11538
1458.78
506.565
273.582
-102.961
618.685
220.131
131.36
31.5525
1011.57
403.283
193.154
-33.1169
582.63
283.319
166.514
85.1828
1171.07
413.159
205.143
-76.8941
589.949
249.163
149.964
59.2441
812.577
385.837
205.835
29.9977
518.691
293.843
178.399
110.459
570.43
345.104
226.991
135.287
428.079
287.8
193.801
141.546
-14.5387
5.58622
5.57628
3.72523
2.71675
-2.13011
3.85282
3.15979
2.06223
1.50436
7.32727
16.58
11.472
7.16096
5.12875
21.4828
16.3184
9.96442
6.0341
4.28664
30.928
29.9594
18.9819
11.6671
8.33848
86.5243
55.4139
32.4002
19.4556
13.7947
102.954
65.0728
38.0811
22.9396
16.3251
150.06
86.0377
48.8487
29.1506
20.7127
53.5383
43.6728
26.7767
16.3183
11.5892
57.7979
41.2822
24.7167
15.0206
10.674
37.2877
35.1986
21.9679
13.5076
9.64589
69.7202
43.2663
24.9321
15.0201
10.6355
69.7609
51.9846
31.5028
19.1708
13.6577
77.8139
49.3418
28.8866
17.447
12.4059
119.158
69.272
39.4422
23.5621
16.7363
99.6795
57.1991
32.5136
19.4237
13.774
-26.9192
2.70813
4.12244
2.86232
2.10606
-14.7051
0.830551
1.62143
1.14882
0.85774
-12.5241
9.64364
7.77935
4.98719
3.61207
-9.5621
3.28861
2.89362
1.87451
1.37298
5.56795
17.7008
11.9493
7.4466
5.37978
10.0054
11.4623
7.01081
4.20955
3.02126
46.0164
35.0696
20.9631
12.7829
9.17481
30.9624
22.2377
12.9663
7.83288
5.62111
85.5068
46.1778
25.6901
15.2805
10.8147
1795.47
4097.08
1828.21
4064.1
2014.76
4041.46
2395.57
4201.06
2488.01
4317.97
1025.55
1544
1655.32
2589.65
558.336
768.166
205.749
262.616
9291
2222.21
510.136
114.158
28.4249
2536.99
683.813
182.081
41.4772
9.03964
9170.32
2176
499.126
110.774
27.7889
2583.31
762.217
188.101
43.8056
10.9031
8735.83
2059.16
470.679
104.348
26.2125
2507.51
736.627
181.279
42.004
10.4927
7975.2
1863.9
424.883
94.1376
23.66
2432.83
699.669
169.975
39.0398
9.70143
6653.33
1547.48
353.03
78.3415
19.7189
2292.17
641.585
154.202
35.202
8.72361
3127.2
760.742
176.595
39.4908
9.96057
1117.84
317.847
75.828
17.0186
4.20907
4673.79
1120.97
258.167
57.4401
14.4615
1644.3
461.485
110.978
25.3208
6.31729
1832.16
449.223
104.777
23.5485
5.95204
627.591
185.494
44.0291
9.88222
2.46771
633.51
154.456
36.1249
8.15044
2.06231
252.221
67.9941
15.0293
4.1963
0.8279
25.1563
445.218
4644.89
-904.847
763.725
818.453
2388.18
3059.7
1933.32
3623.3
3056.48
4712.34
3693.94
4582.99
1916.29
2579.27
2037.32
2417.06
1058.82
1100.94
2318.35
1673.07
576.168
-362.043
-652.801
-780.18
-173.834
13269.7
3422.78
4456.63
2975.3
-20.5721
109.494
3097.71
-1208.27
-615.14
-898.716
-475.849
7273.91
3897.96
1478.83
1168.21
3724.16
2126.76
713.731
1444.07
-1315.95
-708.101
801.953
661.19
8802
4322.45
5450.08
2912.13
4102.78
4632.25
1623.07
-737.974
1043.97
1622.82
1307.75
1107.87
974.528
722.968
1315.02
1049.1
811.425
564.362
239.574
504.459
416.724
313.826
197.905
68.4558
-323.311
-269.693
-201.156
-123.531
-41.586
-583.005
-486.563
-363.413
-223.565
-75.3208
-697.721
-583.364
-436.599
-269.065
-90.74
-150.792
-119.639
-82.7279
-46.4193
-14.5089
9479.74
8036.78
6680.38
5916.19
5286.53
2946.39
2499.21
2241.71
1802.71
922.296
3382.73
2651.28
2164.5
1637.09
825.029
2253.08
1761.17
1472.58
1097.45
449.494
86.1424
90.4654
167.837
162.122
76.7247
173.986
219.746
227.756
180.975
73.2383
2599.14
2133.58
1645.45
1119.97
450.449
-717.045
-338.987
-126.287
-17.1288
8.23146
-485.846
-341.499
-202.748
-93.992
-23.494
-623.096
-377.997
-188.604
-69.7707
-13.187
-432.438
-360.267
-263.669
-157.187
-51.2494
5312.95
4700.66
3966.65
3546.86
3180.79
2980.1
2322.02
1876.94
1382.43
652.83
1336.82
1171.66
959.063
666.623
257.253
1018.52
856.962
673.591
451.66
168.549
3088.51
2468.12
1854.62
1213.21
460.081
1869.39
1568.37
1214.56
794.692
284.968
618.993
513.453
394.427
256.943
92.5262
1266.97
1051.82
798.018
507.817
177.392
-1140.08
-918.586
-662.431
-395.961
-130.98
-623.302
-508.686
-368.685
-219.579
-72.1385
708.937
600.464
471.236
312.58
113.792
587.305
499.509
392.623
259.577
93.5515
5640.28
4054.57
3405.33
3032.42
2556.5
3280.24
2525.43
1921.31
1343.54
592.493
3978.55
3211.03
2542.77
1922.67
912.917
2313.54
1865.07
1430.58
985.064
419.889
3473.47
2818.14
2128.95
1381.24
505.875
3494.24
2567.74
2029.71
1475.06
607.282
1411.15
1163.68
881.287
562.991
198.278
-655.308
-541.196
-397.923
-240.442
-79.8499
912.31
767.188
601.501
400.983
147.013
-28692.9
-46887.7
-23804.2
-37939.3
-25445.6
-53155.2
-30443.9
-67516.7
-18194.3
-12464.8
-20422.5
-12749.8
-16749.3
-10772.9
-20698.4
-10924.8
-23794.2
-17974.8
-34583.5
-24967.7
-20446.7
-16340.3
-28886.7
-21746.7
-16357.3
-16753.3
-13444.1
-12959
-15871.4
-14902.7
-39669.3
-10945
-15147.2
-5666.21
-48435.9
-13442.6
-13535.9
-5057.59
-29563
-9308.42
-15511.9
-5946.63
-26324.9
-8175.59
-12345.1
-4973.88
-15682.5
-5688.44
-11725.1
-5164.11
-13626
-4939.15
-12145.6
-5908.83
-10886.9
-4329.83
-13914.3
-4919.66
-4876.37
-1713.86
-10418.7
-6974.71
-8993.02
-5515.13
-9155.66
-7385.82
-7871.87
-5626.22
-9166.29
-5259.28
-10746.4
-6765.65
-6163.59
-3700.19
-3315
-2049.38
-5315.57
-3675.69
-2771.51
-1981.77
-6270.52
-3436.26
-3454.02
-1745.55
-8096.15
-4117.88
-5274.26
-6106.67
-10291.6
-6926.54
-7441.13
-10323.7
-5480.94
-2461.71
-3155.01
-3519.98
-2947.24
-1187.26
-1416.33
-1330.28
-12182.9
-14869.4
-6881.34
-16849.3
-12667.5
-14188.2
-7905.38
-17224.1
-12799.1
-12909.5
-9420.06
-16381.5
-8716.01
-7015.47
-9583.72
-10648.2
-10630.4
-9569.23
-11118.9
-12952.4
-13980.7
-19852.2
-6615.5
-6878.07
-7513.19
-9087.36
-14137.8
-14146.1
-9876.33
-17969.8
-13842.1
-13113.9
-9719.32
-17705.5
-13789.4
-11605.6
-9089.68
-16527.1
-13657.8
-7832.23
-6234.55
-8166.69
-6543.13
-9156
-7427.66
-10049.7
-8550.19
-15053.5
-13735.6
-7346.22
-6355.74
-7467.89
-6539.81
-8264.24
-7786.76
-9945.34
-9917.7
-13862.8
-14329.3
-6780.45
-5415.65
-4988.17
-6490.09
-8397
-11515.7
-6351.43
-10644.3
-4607.44
-6035.66
-6583.71
-5389.63
-934.973
-4280.51
-292.807
-1275.54
-3079.79
-7305.49
-713.724
-2064.22
-502.103
-3848.52
-180.462
-1194.44
-4747.7
-4715.13
-5466.81
-3311.74
-7353.22
-5731.46
-8851.02
-5847.41
-1092.41
-2554.33
-2696.28
-1481.33
-1443.98
-1837.4
-2088.05
-1534.83
-5999.26
-2063.4
-8125.34
-2770.87
-6133.56
-2154.82
-8318.69
-2984.61
-6088.52
-2122.47
-8804.92
-3391.22
-3680.03
-1042.2
-4623.71
-1769.5
-5255.67
-2036.03
-6346.4
-2399.38
-9302.38
-3699.94
-4663.74
-1426.65
-4301.84
-2110.75
-5219.47
-2468.17
-7023.38
-3059.28
-9667.54
-3653.49
-6301.26
-5895.08
-4801.54
-4695.21
-10594.4
-8099.58
-8641.82
-7153.71
-4213.22
-3601.29
-1732.25
-1228.35
-3982.75
-3798.71
-1610.4
-1659.84
-3074.64
-4701.64
-3627.38
-5077.42
-3802.1
-2567.84
-3360.13
-604.45
-7009.36
-1890.81
2529.05
312.87
-1014.32
-383.604
139.247
556.644
-2395.28
-1633.62
-899.777
-516.692
-2565.11
-1737.08
-1373.76
-616.27
-2882.47
-2097.26
-1863.91
-886.211
-1281.36
-159.17
536.669
977.412
-5184.85
-5561.61
-4030.18
-3757.45
-7048.34
-7053.82
-5866.34
-4924.09
-2614.9
-2893.38
-3871.7
-4429.68
-2464.34
-2133.07
-1060.84
-966.673
-3785.99
-2974.44
-1930.71
-1521.96
-1390.48
-1532.47
-280.332
-618.025
-1695.15
-1150.24
-2413.79
-1686.08
-2610.93
-2037.91
-3702.46
-2751.16
-640.856
-373.012
-1197.7
-662.968
349.33
483.904
-330.903
142.584
-3440.19
-4261.59
-2836.45
-4140.28
-3412.38
-4278.96
-2901.68
-4131.35
-3626.98
-3996.36
-3070.5
-3927.9
-2944.96
-4920.91
-2463.3
-2077.83
-2154.09
-7337
-5141.97
-4606.99
-4630.79
-4549.8
-5899.36
-4888.34
-4050.54
-3668.55
-2757.79
-4987.45
-4938.04
-6333.63
-9772.92
-4757.18
-4465.36
-6085.2
-9326.24
-4428.3
-4188.83
-5623.45
-8616.85
-7098.9
-5433.52
-6298.38
-4755.71
-5374.45
-4224.26
-5325.56
-4815.51
-5231.83
-7959.04
-5749.18
-5400.13
-4780.58
-4749.07
-4175.27
-4352.45
-4151.49
-4872.64
-3615.82
-6907.43
-3917.62
-2779.87
-2708.86
-1017.99
-5741.85
-5009.8
-4461.56
-3313.15
-2034.71
-711.998
-3079.53
-2409.71
-3256.95
-1016.32
-489.618
75.8415
-3704.82
-2441.28
-694.03
-418.316
-2639.41
-703.369
-317.938
157.286
-1764.99
-1763.4
-1847.12
-3463.94
-2725.77
-3010.46
-2626.28
-4815.57
-1946.68
-1175
-1032.08
-2122.64
240.265
385.566
803.321
168.525
-3519.93
-1026.01
-6534.04
-627.913
-3306.39
-1113.35
-6362.24
-652.799
-2571.52
-682.183
-5782.66
-490.871
-2995.55
-684.069
-2688.5
-631.99
-2816.47
-854.616
-2830.13
-525.814
-5437.54
-662.612
-4121.67
-824.878
-3685.64
-597.608
-3610.92
-700.407
-3859.11
-557.505
-5713.69
-682.48
-710.545
-157.015
130.726
346.797
-241.652
-42.9274
48.6499
106.902
-703.217
-128.635
140.585
321.173
-171.331
19.0388
41.2247
51.7297
-722.906
-96.1123
131.12
270.84
-35.1978
190.84
308.849
333.32
474.586
403.781
472.171
469.869
900.131
618.776
463.037
324.179
-328.132
85.8333
321.055
536.847
-260.9
136.941
242.413
528.519
-776.383
-82.5157
188.637
428.105
-590.914
32.5498
208.186
648.084
100.363
256.242
345.807
451.063
41.8303
229.804
248.407
376.201
520.853
419.384
337.616
256.383
364.87
327.163
255.91
234.1
-1115.93
-259.409
153.451
568.669
-1377.33
-299.679
21.8474
702.942
-1071.99
-227.417
168.394
579.658
-1325.74
-278.007
22.9707
695.972
-999.389
-178.414
120.832
491.801
-1206.77
-236.809
-10.0533
626.266
-666.146
-48.8185
102.513
338.026
-1250.7
-206.157
-22.6785
774.468
-618.176
2.60964
127.319
491.262
-1269.53
-226.886
-27.7692
488.416
-550.628
-86.3698
14.5064
121.953
-1187.66
-196.589
-12.146
490.603
-524.525
-76.4448
16.5141
119.234
-1021.22
-137.034
-8.50766
474.429
-447.761
-51.4089
27.379
124.287
-840.475
-87.1096
-26.716
422.063
-367.325
-25.9586
24.3371
117.395
-617.638
-6.84978
16.6884
359.526
-190.417
32.3066
33.5856
113.037
-280.488
104.658
168.508
344.087
85.179
171.892
145.005
166.561
-510.181
18.9536
91.0724
349.362
-19.9928
108.74
88.7795
139.846
0.35673
198.015
212.282
311.409
192.147
223.206
184.965
178.19
283.298
278.893
219.842
221.383
304.072
262.617
195.152
163.793
75.5945
20.7781
7.86667
4.01367
2.72663
31.6838
9.85051
3.9913
2.08169
1.41521
87.0704
29.5928
13.2879
7.32751
5.10997
49.2055
21.1059
10.6192
6.10157
4.30774
106.448
41.0279
19.8933
11.2399
7.88551
124.693
60.811
32.478
18.9874
13.4761
138.797
70.3621
37.997
22.2269
15.7311
154.173
86.2694
48.3862
28.6952
20.3717
127.733
53.9686
27.4665
15.791
11.1868
107.939
47.448
24.5142
14.1168
9.99791
115.137
44.289
21.8075
12.3417
8.67721
93.702
43.6378
23.2122
13.45
9.55147
136.997
61.983
32.2384
18.6367
13.1782
109.655
53.6165
28.6882
16.7205
11.8663
128.611
70.254
39.1584
23.1766
16.4458
107.076
58.1249
32.3025
19.0913
13.5528
82.9317
18.596
6.37542
3.12833
2.09838
38.6451
7.50743
2.4149
1.14644
0.751723
88.4144
23.6677
9.59194
5.10204
3.50289
40.6379
9.35904
3.60479
1.88715
1.27704
90.171
28.2116
12.7456
7.03251
4.85856
44.7654
15.2481
7.46156
4.29297
2.99267
98.4212
38.7378
19.5318
11.0989
7.74192
57.9573
23.1131
11.9253
6.84419
4.77239
81.3061
42.6978
23.5571
13.8381
9.82677
-1887.21
-3579.82
-1945.04
-3589.08
-2125.1
-3620.46
-2339.98
-3721.35
-2268.7
-3741.73
-910.398
-1396.13
-1493.43
-2308.1
-459.731
-667.469
-114.317
-179.089
-9203.56
-2185.94
-499.409
-111.36
-27.6477
-2480.35
-671.055
-178.327
-40.4875
-8.79295
-9040.22
-2133.82
-487.705
-107.945
-27.0175
-2529.35
-748.167
-184.095
-42.7371
-10.6069
-8540.23
-2009.16
-458.584
-101.534
-25.4724
-2448.36
-720.61
-176.957
-40.9083
-10.1969
-7736.61
-1810.78
-413.033
-91.5159
-22.9945
-2351.51
-679.783
-165.191
-37.9159
-9.41235
-6441.41
-1502.41
-343.256
-76.2257
-19.1928
-2188.62
-619.049
-149.246
-34.1068
-8.45319
-3062.37
-744.492
-172.758
-38.6267
-9.74218
-1057.23
-302.808
-72.4327
-16.2813
-4.0298
-4549.81
-1092.02
-251.661
-56.0175
-14.1088
-1559
-442.51
-106.857
-24.4306
-6.10135
-1797.55
-440.37
-102.6
-23.0421
-5.82046
-584.347
-173.837
-41.2293
-9.25197
-2.30966
-611.271
-148.837
-34.7121
-7.81296
-1.97253
-217.375
-58.2734
-12.5847
-3.62409
-0.681447
24.6049
-1231.48
-5702.6
742.332
-6652.74
-2929.9
-6447.61
-2985.68
-11795.7
-6296.68
-13212.9
-6999.36
-121.845
-458.67
-717.262
-844.936
-752.692
-272.215
-199.496
-718.942
-1091.14
-1211.28
-979.405
-317.27
-102.321
-107.799
-364.535
-365.558
-519.079
-514.162
-497.107
-475.784
-437.944
-431.499
-322.639
-308.864
855.847
2154.87
3496.01
2485.43
2272.59
1076.78
780.314
2203.17
3579.62
4162.91
3475.94
1567.83
-109.8
-92.7297
-70.1969
-43.7056
-14.8332
-413.884
-350.143
-265.552
-165.59
-56.2466
-647.162
-547.418
-415.119
-258.84
-87.9223
-762.081
-644.354
-488.424
-304.45
-103.397
-678.876
-573.937
-434.918
-270.989
-92.0052
-247.942
-211.524
-161.14
-100.471
-34.055
-179.644
-151.583
-114.656
-71.3446
-24.2068
-648.248
-547.917
-415.193
-258.745
-87.8634
-983.474
-830.911
-629.424
-392.181
-133.171
-1090.83
-920.763
-696.941
-434.041
-147.358
-881.212
-743.108
-562.011
-349.842
-118.754
-286.817
-242.955
-184.282
-114.806
-38.9582
-92.2753
-78.0076
-59.1124
-36.8329
-12.5051
-97.2783
-82.2987
-62.4128
-38.9142
-13.2167
-329.087
-278.563
-211.382
-131.864
-44.7978
-330.074
-279.455
-212.101
-132.333
-44.9615
-468.547
-396.557
-300.878
-187.673
-63.7544
-464.071
-392.717
-297.926
-185.814
-63.1208
-448.729
-379.792
-288.138
-179.7
-61.0368
-429.173
-362.926
-275.121
-171.487
-58.2329
-395.363
-334.57
-253.674
-158.065
-53.6496
-388.709
-328.157
-248.313
-154.539
-52.4309
-291.984
-247.432
-187.456
-116.49
-39.4307
-278.116
-234.529
-177.117
-109.974
-37.2468
757.702
629.577
472.074
293.679
100.053
1899.22
1573.38
1179.46
735.788
251.852
3043.66
2502.61
1876.38
1180.92
410.556
2148.46
1762.16
1325
838.447
292.711
1996.43
1642.48
1229.84
766.126
249.741
976.039
820.351
623.582
390.149
124.485
691.973
575.61
431.59
268.171
91.2295
1948.54
1617.98
1212.97
754.891
257.451
3145.03
2599.14
1946.58
1215.28
416.766
3631.75
2987.08
2235.83
1401.03
483.452
3031.59
2492.64
1866.84
1170.79
402.696
1382.06
1148.46
868.056
547.402
188.192
241.278
578.818
838.131
965.565
870.769
399.262
368.057
886.058
1251.62
1353.46
1089.33
392.82
195.145
185.675
456.273
443.588
606.393
589.048
573.587
537.027
512.853
446.102
454.984
354.586
-707.08
-1930.67
-3109.25
-1970.57
-1653.53
-404.628
-716.808
-2102.72
-3357.34
-3763.01
-2901.04
-882.726
218.134
184.981
140.643
87.8783
29.8831
522.963
443.098
336.591
210.167
71.4441
756.988
641.131
486.837
303.894
103.289
871.882
738.247
560.441
349.775
118.873
786.646
666.388
506.064
315.886
107.359
364.042
311.248
237.977
149.003
50.6612
332.628
281.94
214.266
133.839
45.5051
800.06
677.395
514.232
320.937
109.074
1129.43
955.607
724.975
452.271
153.68
1220.4
1031.74
782.197
487.772
165.719
981.629
829.35
628.465
391.825
133.12
355.854
302.249
229.964
143.661
48.832
176.453
149.661
113.806
71.1167
24.1839
167.89
142.394
108.275
67.6571
23.0065
412.337
349.478
265.555
165.844
56.379
400.888
339.781
258.189
161.245
54.8158
547.861
464.21
352.632
220.175
74.838
532.131
450.809
342.397
213.758
72.6534
518.316
439.27
333.737
208.387
70.8289
484.975
410.703
311.815
194.605
66.1309
463.878
393.505
299.155
186.83
63.4971
402.764
340.967
258.761
161.429
54.8417
413.112
351.697
267.975
167.445
56.8834
320.54
271.643
206.244
128.64
43.6838
-622.157
-513.498
-382.948
-237.594
-80.9263
-1695.25
-1399.04
-1045.94
-652.035
-223.378
-2689.13
-2196.7
-1639.95
-1031.7
-359.782
-1662.63
-1329.89
-979.937
-613.656
-213.916
-1405.56
-1112.48
-802.447
-483.608
-148.431
-332.497
-241.021
-154.506
-78.7289
-12.7808
-634.358
-526.58
-394.2
-244.773
-83.27
-1857.76
-1541.08
-1154.64
-718.603
-245.166
-2942.1
-2424.98
-1812.63
-1130.93
-388.017
-3261.99
-2665.04
-1984.13
-1240.11
-427.953
-2495.21
-2021.11
-1494.51
-930.16
-318.838
-740.42
-581.953
-418.651
-255.669
-86.244
-1476.77
-931.214
-278.503
614.816
912.905
1158.19
524.592
-11006.2
-1789.51
-3218.31
-1531.1
223.878
-3948.21
800.587
2410.22
1127.41
-5983.95
-2747.27
-519.628
-588.548
-3351.9
-1305.01
-286.093
-1029.02
2055.13
1263.84
-526.676
-196.574
-7810.01
-3607.68
-4331.85
-2099.45
-3503.66
-3408.63
-1104.53
1275.33
-424.179
-723.751
-466.647
-387.459
-461.361
-513.411
-579.04
-369.472
-246.179
-176.841
-93.8396
-231.367
-180.998
-131.393
-82.3723
-28.9119
556.23
471.812
358.495
223.721
76.0127
822.742
694.621
525.41
326.758
110.798
1043.77
881.364
666.925
414.983
140.763
476.828
405.141
306.793
189.925
63.9668
-7739.54
-6728.76
-5857.89
-5712.32
-5779.66
-1136.43
-733.454
-802.833
-895.93
-622.048
-2236.82
-1615.6
-1348.8
-1137.13
-682.444
-973.573
-625.045
-554.47
-482.9
-212.322
211.73
176.187
118.361
55.7006
10.5948
-3263.55
-2638.1
-1998.39
-1336.83
-530.077
725.619
608.064
449.3
269.228
87.1045
2088.67
1699.43
1250.95
767.737
259.494
1010.69
845.855
632.926
389.413
130.737
-4096.29
-3695.08
-3242.85
-3196.91
-3261.96
-1872.59
-1319.62
-1080.39
-880.954
-494.965
-401.354
-320.266
-272.851
-221.882
-104.894
-469.894
-368.957
-286.908
-203.799
-83.9721
-2772.21
-2215.26
-1675.79
-1112.97
-432.142
-1088.36
-870.795
-659.146
-436.009
-160.818
-220.931
-164.228
-120.058
-81.3215
-32.1621
-882.64
-717.019
-537.141
-342.137
-120.742
1831.44
1527.67
1143.44
705.957
238.298
1138.76
959.221
721.946
445.88
150.18
-436.366
-348.122
-264.847
-177.256
-66.9472
-149.827
-111.824
-85.7598
-62.298
-25.6371
-4708.56
-3216.66
-2735.08
-2620.83
-2480.3
-2599.24
-1911.89
-1425.79
-1017.91
-478.057
-2856.86
-2202.68
-1720.65
-1385.04
-707.194
-1540.89
-1170.31
-872.504
-621.724
-295.466
-2917.2
-2331.18
-1748.82
-1140.6
-424.419
-2347.43
-1530.43
-1211.04
-958.363
-434.451
-932.908
-748.614
-558.857
-358.719
-128.564
1150.86
971.577
733.258
454.154
153.322
-328.181
-249.131
-191.364
-137.493
-56.4192
1.85193
39.7153
88.6678
111.027
68.3261
-44.5465
-20334.3
-17957.3
-17080
-19463.3
-14911.3
-11811.4
-13399.2
-10175.9
-17670.8
-15522.5
-16285.6
-15344.4
-14299.3
-12191.1
-15042.3
-16755.2
-14982.9
-13738.9
-15490.3
-12601.8
-10673
-11232.4
-9007.44
-15870.4
-14137.4
-14626.9
-13356.1
-12675.7
-11834.3
-12241.7
-13176.9
-12080.8
-10883.7
-11906.1
-10489
-9011.81
-9387.86
-8060.85
-13303.5
-12127.6
-12386.6
-11340.8
-10782.1
-9969.47
-10291.7
-9217.91
-8674.74
-7685.48
-8150.72
-7786.35
-6985.55
-6978.74
-6381.08
-9607.78
-9719.54
-9066.58
-9158.86
-8090.99
-7316.84
-8134.64
-5900.94
-5641.1
-4948.14
-5163.99
-5219.7
-4728.08
-4608.91
-4258.05
-6368.58
-6374.71
-6084.73
-5964.98
-5542.58
-5009.65
-5427.26
-2125.28
-2049.89
-1790.57
-1854.47
-1929.21
-1802.88
-1689.68
-1575.6
-2413.15
-2413.48
-2259.51
-2160.18
-2083.03
-1911.75
-2049.08
-7665.93
-7553.07
-11496
-12395.8
-7205.2
-6395.64
-10081.7
-8194.61
-5958.36
-4392.84
-5917.03
-4365.37
-5938.23
-5686.24
-4445.37
-7628.43
-7237.97
-10229.1
-11157
-6719.94
-6081.56
-8895.81
-7657.41
-5920.2
-3836.98
-5818.91
-4065.76
-5315.06
-5114.91
-4459.68
-6949.08
-6624.11
-8664.39
-9292.7
-6225.71
-5791.67
-7752.42
-6858.33
-4877.88
-4138.26
-4867.95
-4382.95
-4547.65
-4558.98
-4565.67
-5590.63
-5383.67
-6482.64
-6809.76
-5114.7
-4783.6
-6001.45
-5476.39
-4652.74
-3699.72
-4578.66
-3962.06
-4286.1
-4261.94
-4066.25
-3847.99
-3728.84
-4280.16
-4443.56
-3469.15
-3212.02
-4033.21
-3703.65
-3252.63
-2836.44
-3182.9
-2997.2
-2982.36
-2934.52
-2880.1
-1430.31
-1387.66
-1563.04
-1614.82
-1285.44
-1181.65
-1481.99
-1365.42
-1060.87
-1036.9
-1134.03
-1136.18
-1102.57
-1073.28
-1049.46
7416.31
23961.4
5886.33
25081.1
4422.36
25924.8
6989.59
39908.4
8585.66
54857.1
8517.02
39978.9
8204.16
33186.6
8540.26
29038.5
5176.05
3218
13860.1
8241.26
5069.83
2738.29
15143.4
7521.17
5644.66
4106.5
17840.4
12611.2
4276.01
3101.71
17918.1
13064.9
10089.1
4268
8722.59
3893.45
4021.45
9432.81
34713.8
9396.48
12441
4190.71
44654.5
12106.7
11622.9
3994.35
24838.2
7700.17
12752.7
4439.31
21638.8
6872.28
6200.12
3074.52
8929.47
3490.86
6778.56
3661.68
8871.24
3414.95
8562.53
4887.59
7640.17
3331.51
11236
4047.29
3859.82
1350.49
12739.7
8871.4
7855.38
5762.44
14116.7
11628.5
7703.88
6667.23
7488.98
5095.38
10618
7159.16
5158.66
3801.14
2597.77
2136.24
4950.35
4276.04
2534.06
2449.9
4977.85
3283.5
2531.71
1632.29
6724.32
3664.74
5073.65
6090.6
9251.61
6588.7
7387.28
10453.9
4430.17
2104.93
2982.36
3477.82
2186.09
912.111
1281.16
1286.82
8285.96
14921.5
5603.46
16635.6
9745.92
14595.9
6925.19
17396.1
11035.4
13196.7
8888.27
16938.7
12771.4
15058.1
9756.36
9447.09
10297.3
15065
14109.9
14019.6
14463.6
20786.6
12252.7
9576.77
8392.2
9420.12
14658.4
17337.6
15527.8
20061.9
19306.3
15845.9
14709.4
19780.5
18903.1
13712.1
13398
18537.1
18201.5
11026.3
8690.39
10442.2
9152.72
11483.9
10355.7
12411.4
11987.5
17015
17499.5
10293.8
8978.86
9961.51
9691.94
10362.7
11110.9
11698.5
13258.3
15229.7
17752.1
8546.73
6720.68
5845.54
7408.66
11425.3
13855
7900.6
12455
5000.87
6538.13
7478.19
6183.19
1440.13
4907
726.913
1753.91
4027.76
8349.99
1469.89
2881.17
728.04
4193.28
387.375
1464.53
4937.87
5010.24
5615.62
3525.76
7836.36
6301.07
9213.89
6408.84
1197
2745.29
2792.38
1613.12
1541.69
1990.55
2171.63
1644.3
12398
7545.64
2387.91
13990.5
8057.35
2641.74
11864.4
7451.53
2522.83
13751.6
8053.38
2636.47
10915.2
6847.05
2255.05
13407.1
8086.74
2704.48
5753.2
3167.77
874.557
7458.5
4925.74
1707.42
8958.67
6176.18
2129.75
10396.2
6748.53
2243.96
13268.6
8299.35
2900.2
6789.33
3872.03
1246.89
7082.89
5109.68
1931.47
8461.56
6247.95
2300.4
10549.1
7411.96
2656.97
13430.9
8415.02
2992.45
304.535
2028.18
2881.26
4139.37
2226.63
2546.53
5585.62
5285.3
586.636
1013.2
625.117
1051.36
490.273
1409.82
872.581
1848.43
3232.69
1579.61
4080.58
2360.14
2164.39
3779.87
3421.68
892.477
6177.84
1472.73
-1982.52
655.871
1755.83
1282.46
1202.39
1077.4
9756.68
4398.21
2647.39
1622.19
9887.06
4571.03
3350.3
2065.48
9763.34
4913.48
4854.23
3367.56
3479.17
2478.6
1671.91
1595.3
12703.6
11277.4
5971.92
6188.58
13761.4
12903.6
6783.57
6830.68
5268.2
5413.15
10850.1
9043.38
3545.97
3713.34
1953.29
2237.9
4164.05
4136.95
2258.36
2429.27
3063.75
3311.04
1688.68
2107.57
4662.17
3220
4638.47
3243.61
7276.15
4237.98
6917.22
4489.2
2790.9
2328.45
2929.86
2091.83
1532.64
1445.81
1856.71
1224.07
11513.5
7866.58
5717.86
5722.87
11430.3
8078.29
5741.4
5696.09
11892.2
8454.8
5823.31
5548.45
13935.5
15144
12637.2
8398.02
4704.16
14350.7
13175.1
12156.3
9970.18
6336.59
13448.6
12072.8
9591.2
7332.57
4514.6
6552.55
5741.1
6053.99
6822.24
6805.19
5682.25
6139.03
6766.34
7176.45
5728.52
6239.4
6722.6
10825.1
7655.82
10001.6
6949.64
7802.47
6275.52
7233.83
6143.44
5814.18
6700.1
8999.75
7818.32
7889.99
6876.31
6676.81
6031.78
5828.57
5750.07
4566.21
6367.17
7052.73
4771.46
4684.11
2811.55
9286.52
7161.28
6446.99
5201.74
3792.26
2273.13
5504.63
4051.99
4719.72
2233.67
1711.01
982.318
5029.08
3645.69
1738.69
1442.89
4057.79
1803.11
1583.58
828.461
3113.33
2839.3
2692
3920.45
4336.11
4062.21
3425.16
5005.09
3171.65
2031.3
1963.49
2672.61
943.802
449.543
181.074
482.158
3950.85
1652.46
489.303
4512.04
1180.04
314.723
4025.49
1793.58
551.294
4517.13
1225.31
343.644
3816.19
1803.5
468.647
4473.43
1257.75
296.509
4753.87
2435.14
558.796
4218.11
2046.32
489.927
4062.29
1949.67
530.117
3963.1
1855.92
398.167
4488.1
1245.96
189.303
5980.63
3031.32
823.57
5302.69
2638.69
726.381
4753.04
2346.97
683.606
4434.41
1901.74
470.972
4873.55
1174.4
288.63
1690.64
600.671
124.262
-161.738
701.137
262.045
72.5751
-30.6409
1797.47
661.466
175.64
-94.9253
899.372
367.091
177.041
81.3303
1927.14
733.755
262.363
10.1425
1533.93
700.256
261.782
54.9562
1162.63
637.839
205.86
-22.5081
1076.14
686.265
380.423
215.988
1589.69
693.629
203.589
-156.154
1352.95
582.915
250.774
-150.475
1879.56
721.043
234.677
-101.091
1693.43
652.754
260.167
-244.439
1269.96
639.138
243.307
-53.3244
1034.9
510.353
265.926
1.58619
930.155
555.713
317.115
187.077
708.527
425.965
275.984
156.278
2147.64
726.81
128.453
-323.878
2108.99
668.371
188.463
-438.335
2146.12
737.802
147.695
-307.967
2042.24
649.751
195.74
-424.111
2105.6
740.02
220.325
-211.797
1909.91
615.32
236.978
-342.105
1848.29
683.896
297.567
-9.22394
2096.02
688.873
329.539
-397.564
1644.88
609.86
294.936
-90.0293
1657.58
470.876
167.625
-292.635
657.155
171.237
45.0265
-58.841
1711.99
501.364
184.007
-276.187
683.53
184.314
56.5192
-45.5295
1755.66
539.44
224.168
-240.038
702.006
201.154
71.5959
-30.7137
1588.27
509.25
256.096
-185.805
685.697
208.288
97.4575
-4.1072
1458.53
506.476
273.54
-102.96
618.567
220.08
131.329
31.536
1011.56
403.304
193.168
-33.1022
582.64
283.329
166.513
85.1759
1170.95
413.131
205.13
-76.8901
589.888
249.134
149.939
59.2234
812.677
385.911
205.881
30.032
518.781
293.902
178.431
110.477
570.621
345.226
227.067
135.341
428.236
287.905
193.865
141.59
-15.441
5.03319
5.25293
3.52152
2.56323
-2.73525
3.47247
2.9269
1.90901
1.38553
7.29325
16.5567
11.4515
7.14334
5.11057
21.4711
16.3113
9.95777
6.02871
4.27631
30.8668
29.9144
18.9444
11.6355
8.30771
86.4449
55.3501
32.3468
19.411
13.7544
102.929
65.0485
38.0588
22.9203
16.3106
150.07
86.0383
48.845
29.1457
20.7087