/*--------------------------------*- C++ -*----------------------------------*\
  =========                 |
  \\      /  F ield         | OpenFOAM: The Open Source CFD Toolbox
   \\    /   O peration     | Website:  https://openfoam.org
    \\  /    A nd           | Version:  11
     \\/     M anipulation  |
\*---------------------------------------------------------------------------*/
FoamFile
{
    format      ascii;
    class       volScalarField;
    location    "1.8";
    object      gradTx;
}
// * * * * * * * * * * * * * * * * * * * * * * * * * * * * * * * * * * * * * //

dimensions      [0 -1 0 1 0 0 0];

internalField   nonuniform List<scalar> 
5712
(
-6795.88
-8686.55
-16118
-23553.8
-24033.5
-41473.5
-18451.6
-46996.7
-15019.5
-33002.1
-22464.6
-34180.6
-20147.8
-26439
-8863.83
-10140.6
-15197.2
-17416.1
-19609.9
-19445.9
-15411.9
-19025
-22704.8
-20356.5
-5540.84
-4179.24
-6888.52
-4645.2
-12851.1
-10306.5
-21919.5
-15906.9
-16970.7
-17654.3
-18874.1
-18063.7
-6671.53
-5198.45
-40109.9
-53690.5
-25920.8
-31816.8
-53869.6
-69908.8
-27861.6
-31899.3
-29772.1
-42048
-25996.7
-34441.6
-15241.9
-24537.6
-2941.3
-993.135
-3093.79
-1116.72
-8876.11
-3588.44
-12152.7
-4478.32
-8678.02
-3324.23
-9186.29
-2949.14
-15632.6
-4979
-20161
-6808.85
-24538.4
-12212.8
-22465.4
-13310.9
-22950.4
-14848
-20189.9
-15150
-17715.3
-10530.7
-17731.6
-9063.99
-23182.8
-14792.6
-23235.9
-14921.5
-21331.2
-16020.3
-21589.1
-16082.1
-19127.4
-12137.9
-19808.2
-12429.8
-18125.2
-7874.63
-8398.46
-10263.5
-18197.6
-8618.99
-7350.19
-10434.5
-19188.1
-7827.78
-9501.91
-10319.2
-20137.2
-8012.14
-10325.6
-10768.6
-3810.18
-4165.99
-1284.32
-2534.66
-11133.5
-11776.7
-4324.64
-7729.91
-14260.5
-15817.3
-6941.79
-11834.6
-12300.9
-949.917
-13769.8
-17111.6
-9362.15
-605.265
-7373.92
-12444.5
-20118.7
-14184.7
-10112.1
-12337.8
-10860.8
-9434.46
-14832.2
-3639.87
-2984.48
-2086.48
-2065.79
-10236.8
-8578.98
-6213.42
-5899.31
-12751.1
-10697.9
-8112.44
-7259.06
-5807.86
-7429.37
-12050
-12525.5
-14261
-12960.3
-16094
-13954.8
-11034.1
-9291.73
-9145.1
-9545.56
-12100.8
-9421.9
-11075.3
-7941.09
-9631.72
-6541.27
-11323.1
-7379.44
-10330.7
-4667.07
-8904.37
-9565.65
-12664.9
-16422.5
-13946.7
-20239.8
-7110.68
-7816.84
-9169.67
-2749.43
-7948.16
-15247
-7547.51
-16376
-13815.4
-25004.7
-14059.1
-26570.3
-6040.8
-13150
-5502.73
-14042.3
-8369.56
-6249.46
-11695.4
-4570.06
-8559.31
-1512.54
-10167
-597.024
-8060.7
-9439.55
-12260.8
-5636.69
-6683.06
-11155
-10864.8
-7413.23
-2353.71
-2062.25
-1823.28
-1694.44
-1545.63
-1370.34
-6946.68
-5633.96
-4829
-4493.56
-3567.11
-3063.19
-8443.75
-7205.13
-6620.69
-5396.47
-4339.68
-4073.05
-6473.09
-5651.55
-5485.45
-10873.7
-8138.36
-6798.07
-10335.3
-7516.26
-6031.08
-10829.8
-8434.02
-7280.8
-6855.58
-4448.52
-3433.15
-15640.8
-13364.2
-11457.3
-10131.9
-8318.07
-6812.07
-9091.17
-6954.86
-5458.35
-7709.1
-5476.63
-4126.38
-8051.25
-4428.49
-2443.85
-10494.9
-14187.9
-8322.7
-10724.8
-11368
-16664.8
-10175.4
-14770
-26.0338
-716.967
517.831
-99.9952
-2963.44
-3333.43
-1232.91
-658.805
-690.747
-2395.24
-9453.14
-13773.3
-6657.71
-3694.31
-10022.9
-9951.96
-15516.8
-17096
619.359
4197.81
-7622.33
-7180.47
-7257.94
-5595.39
-1018.09
-537.113
-672.451
-277.132
-1959.82
-165.715
363.514
865.467
-9238.54
-2344.24
-6277.23
-1610.65
-9103.12
-2760.97
-11020.8
-3525.17
-8905.22
-11968.6
-8224.59
-11664.2
-14396.9
-15182.7
-13728.7
-14363
-5634.29
-9360.44
-6514.33
-9305.5
-8725.17
-11229.8
-9622.32
-11337.2
-14302.1
-14098.6
-14971.8
-14149
-5686.12
-9051.41
-6186.07
-9210.8
224.14
-1239.69
-7290
-4457.64
781.149
-829.531
-6753.39
-3931.91
-238.07
-1505.63
-7450.17
-4863.72
-687.588
-1774.52
-7480.86
-5029.93
710.726
815.433
-154.401
3.12238
2967.54
2991.75
254.345
431.171
673.073
2050.24
-1588.08
-915.533
10269.4
9666.58
5591.74
4326.4
519.401
10574.3
10794.5
4316.03
6393.94
927.135
-10363.7
-8072.37
-7089.46
-6582.45
-3897.11
814.008
741.142
55.4372
-35.0513
2577.68
2485.58
175.432
-47.7214
2604.18
3085.79
-582.332
-860.457
5129.01
2266.87
8107.19
5011.25
3630.42
2715.96
4116.67
3527.35
-311.067
-1193.36
-3803.48
-2395.32
-1045.43
995.129
-956.689
772.921
-1591.51
-279.868
-1905.72
-2159.75
-5193.51
-4726.03
-9892.45
-5949.61
-8146.64
-8158.4
-12362.6
-9990.59
-7713.82
-4499.23
-3818.88
-3771.2
-11669.5
-5130.19
-12835.5
-5753.76
-13790
-10197.2
-14715.7
-10940.7
-9378.2
-3648.99
-10508.7
-4236.13
-5972.63
-4667.05
-4471.14
-6610.58
-3824.66
-4278.19
-3805.63
-6126.41
-6911.49
-4597.75
-5060.07
-7596.27
-8437.15
-4996.06
-6402.36
-7839.6
736.245
774.169
864.967
36.086
272.459
303.236
2675.69
2800.84
2783.6
238.326
779.686
777.55
3403.17
3736.83
3808.59
-497.679
763.247
1019.78
1179.49
998.202
695.211
3609.49
3659.55
3394.34
2946.62
3290.62
3220.57
3651.55
3866.83
3749.89
-1191.58
348.377
459.145
-3487.89
-1997.56
-1076.27
928.249
1984.29
2546.35
919.02
2251.9
2829.36
431.652
1861.76
2269.79
-2100.63
479.349
781.607
30.4531
37.1889
44.7411
66.6655
260.168
142.861
116.296
109.138
19.084
72.7694
165.036
247.085
424.718
261.943
291.247
301.792
-200.06
28.0048
237.639
444.229
163.515
211.704
264.231
292.68
37.7534
125.752
122.093
117.154
-203.219
-8.70989
107.019
177.378
-888.83
-185.198
73.5905
255.278
-1386.19
-324.029
-17.6131
446.93
-606.979
-76.0049
154.802
390.198
-1134.32
-245.234
-34.6527
387.213
-952.214
-222.196
102.51
331.38
-1558.14
-386.35
-20.9008
527.918
-1065.54
-293.312
96.3411
398.972
-1680.94
-442.436
-40.9203
551.713
12.9888
22.3258
39.6511
84.6218
41.9317
31.1585
22.6198
77.0017
81.2521
76.5561
125.883
230.997
173.303
105.157
72.4917
209.147
-365.001
-45.0217
132.999
391.131
-150.734
30.8571
92.4161
368.308
-50.2866
115.844
203.292
394.433
5.0521
94.4298
77.2019
371.173
-967.841
-185.892
2.92356
515.957
85.4768
43.4861
29.7187
59.4992
157.162
63.1998
32.2551
28.2391
178.204
103.642
63.1516
151.657
402.363
168.189
80.3512
72.1093
115.665
115.922
86.4471
248.719
512.959
236.86
121.132
113.399
-64.7234
106.339
108.834
346.692
412.427
256.489
143.385
143.52
-489.3
16.8081
44.2398
327.291
137.987
221.231
129.267
145.224
-1123.06
-114.77
26.5076
375.566
-352.991
54.1745
77.8232
132.044
-858.102
-31.1917
37.3831
349.055
-195.981
129.137
107.424
144.768
-1365.69
-215.534
-5.215
408.156
-492.13
-18.3708
49.0805
122.965
-1547.36
-314.005
-48.677
402.1
-618.247
-95.089
11.6543
105.884
29.1627
12.4011
6.08659
3.38948
2.34537
38.2805
18.8917
9.94332
5.70018
3.97754
69.6998
28.8229
14.0907
7.87777
5.49101
86.3627
42.2455
22.2762
12.8374
8.98976
92.4971
36.1033
17.42
9.72688
6.79934
115.926
56.0288
29.6375
17.1885
12.0892
60.4198
28.5941
15.0707
8.76076
6.16798
43.2735
16.89
8.11489
4.57015
3.18162
92.2209
36.8251
18.1478
10.2761
7.16393
44.0799
15.1019
6.99085
3.86352
2.66857
97.3384
42.7374
22.0603
12.7008
8.91692
41.7176
15.0323
7.17839
4.00361
2.76308
71.1503
24.1348
10.9886
6.05258
4.18816
41.8343
13.4976
6.12322
3.38314
2.3438
62.5094
15.793
5.7696
2.87799
1.90966
34.5747
7.49529
2.49286
1.18885
0.772013
24.4057
9.39554
4.43426
2.41434
1.65393
17.6811
7.44783
3.67704
2.03245
1.39807
59.6441
23.4862
11.351
6.2628
4.32623
45.6408
19.5224
9.78886
5.45225
3.75976
83.6579
28.9804
13.4067
7.27667
5.00611
61.7953
26.7749
13.5723
7.58259
5.26446
74.9101
32.8396
17.0178
9.74177
6.84173
41.9077
20.2947
10.6572
6.0357
4.23652
38.6955
18.0198
9.57355
5.5488
3.90095
-298.313
-436.601
-644.078
-1059.37
-606.431
-1306.65
-26.8224
-1010.35
644.062
-21.9385
-653.713
-1175.63
390.888
303.546
-1129.37
-1825.75
-1467.03
-2110.14
-660.077
-154.078
-34.8245
-7.7153
-1.94144
-210.099
-97.8936
-13.713
-3.67435
-1.62256
-2026.7
-470.757
-106.762
-23.5352
-5.93018
-497.715
-136.273
-33.4208
-7.05796
-1.91644
-3398.16
-790.836
-179.833
-39.7751
-10.0006
-794.671
-232.076
-56.6529
-13.2088
-3.33329
-4544.14
-1060.55
-242.16
-53.7271
-13.5257
-922.173
-291.59
-73.4773
-17.32
-4.35948
-5652.86
-1332.3
-306.338
-68.3134
-17.2712
-1016.27
-354.153
-91.8654
-21.9316
-5.58454
-6647.85
-1614.69
-376.446
-84.6753
-21.5096
-1607.58
-496.187
-123.183
-28.4222
-7.15065
-6208.96
-1503.23
-348.93
-78.1551
-19.7884
-1232.71
-418.024
-107.182
-25.2527
-6.36427
-6842.21
-1663.91
-388.629
-87.5543
-22.2763
-1831.63
-545.785
-133.388
-30.3337
-7.60985
-7122.49
-1717.11
-401.573
-90.4261
-22.9935
-1904.47
-568.862
-140.22
-29.6302
-7.86217
-515.661
-7092.13
-6471.72
-2302.97
1676.83
2849.13
7928.12
11591.6
1792.11
8515.16
-1701.91
2593.4
2520.41
5010.1
9496.02
13449.5
14354.1
18028.6
5862.73
7594.77
-19951.8
-14381.1
-4591.58
-3535.48
-2533.1
-3600.46
-3399.21
-12203.3
-11507.1
-9878.42
-10561.5
-8632.61
-6208.71
-8157.52
-5333.28
-4519.41
-5464.57
-3751.9
-19801.8
-10202.3
-3536.99
-6058.34
-8319.44
-5776.9
-6257.04
-4638.69
-2787.03
-3934.49
-4220.1
-4571.46
-19605.6
-12804.6
-12139.5
-8740.1
-8631.72
-9115.09
-3824.88
-5020.08
-6458.29
-14098.7
-12077.5
-10016.4
-9102.66
-7672.08
-9302.63
-6337.58
-4861.81
-3671.39
-1856.45
-4042.32
-3339.92
-2492.69
-1547.41
-528.027
-3151.42
-2631.83
-1975.01
-1224.38
-415.289
-2245.61
-1862.37
-1387
-854.193
-288.543
-3214.52
-2686.83
-2015.14
-1246.9
-422.037
-3010.37
-2496.2
-1861.42
-1149.21
-389.138
-7780.6
-5893.2
-4555.21
-4146.19
-4389.04
-6240.44
-4540.97
-3193.44
-2614.73
-1808.01
-6158.34
-3696.33
-2539.22
-1743.6
-824.189
-5405.54
-3614.61
-2380.89
-1710.22
-997.137
-4024.47
-2500.92
-1545.84
-1057.31
-512.625
-4899.76
-3645.39
-2505.81
-1490.04
-510.505
-5548.6
-3564.86
-2322.2
-1381.73
-512.381
-3500.21
-2097.73
-1257.73
-680.347
-228.744
-3714.45
-2857.11
-2003.5
-1193.79
-401.634
-4352.19
-3239.71
-2201.69
-1278.64
-423.712
-3117.58
-2418.77
-1702.05
-1011.01
-337.193
-13004.9
-9815.96
-7823.3
-6832.5
-6371.81
-7480.69
-5392.59
-3912.61
-2625.75
-1165.38
-2934.42
-2286.87
-1630.32
-989.682
-339.835
-5112.85
-4065.98
-2961.38
-1833.64
-640.608
-6789.02
-5299.84
-3872.19
-2471.51
-928.221
-4896.92
-3924.74
-2890.51
-1812.51
-639.969
-5395.74
-4385.91
-3251.94
-2032.03
-706.645
-4023.42
-3275.5
-2417.7
-1494.29
-511.215
-2397.42
-1925.78
-1395.35
-844.6
-283.634
-3455.88
-2839.63
-2099.99
-1289.19
-435.597
-3580
-2842.26
-2047.22
-1241.29
-420.319
-3947.01
-3194.42
-2342.18
-1438.68
-490.196
-13527.6
-11092.4
-9140.43
-8000.14
-6822.51
-8847.85
-6297.54
-4795.99
-3503.92
-1757.09
-8899.22
-6995.34
-5266.44
-3836.03
-1837.15
-6841.16
-5158.85
-3847.55
-2590.08
-1044.74
-7167.94
-5698.2
-4225.01
-2719.8
-1014.58
-7078.56
-5298.2
-3926.33
-2631.06
-1048.12
-3270.52
-2631.91
-1932.93
-1199.78
-416.088
-4412.01
-3632.73
-2697.29
-1664.54
-564.927
-5537.68
-4471.14
-3294.96
-2049.91
-710.681
-5733.13
-11687.6
-12151.4
-33339.9
-11951.6
-44542.3
-6530.32
-15858.5
-11963.2
-9221.42
-19917.3
-16583
-11899.2
-11153.5
-22303
-17605.7
-4224.46
-3142.74
-8188.99
-5636.84
-9463.79
-7135.61
-25433.5
-18818.8
-15580.2
-11798.9
-16023.6
-9515.05
-1211.48
-3860.4
-41469
-54248
-25047.9
-31667.9
-54725
-70261
-26900.9
-31667.8
-30936.4
-42648.2
-25199.2
-34384.6
-16770.5
-25264.8
-2024.36
-534.823
-3559.95
-1215.41
-6886.73
-3081.7
-13978.8
-5052.43
-3022.09
-1720.18
-7565.32
-2381.35
-15651.5
-4921.61
-20343.2
-6858.73
-16815
-8728.4
-19428.2
-11532
-15251.3
-10921.2
-17175
-13272
-15572
-9111.47
-12305.8
-6376.5
-22009.5
-13992.7
-22942.7
-14702.9
-20130.4
-15204.6
-21267.8
-15860.3
-18339.1
-11483
-19621.9
-12249
-17094.9
-7570.79
-7460.45
-9881.67
-15289.5
-7746.27
-5604.88
-9733.52
-18913.3
-7749.84
-9064.86
-10132.5
-20105.1
-8005.13
-10202.5
-10714.5
-1163.83
-1052.06
-284.682
-1263.22
-4730.1
-4906.08
-2975.3
-5932.45
-2674.46
-3332.76
-4639.88
-8784.23
-12222.2
-9697.71
-9556.4
-11990.7
-7966.16
-7616.8
-8211.32
-7077.78
-13902.3
-12224.9
-11739.6
-9918.45
-6959.94
-6019.98
-13209.5
-1137.57
-852.079
-639.379
-717.704
-4403.44
-3488.81
-3747.58
-3303.75
-664.254
497.604
-4435.85
-3486.37
-10181.9
-10811.2
-9538.92
-8739.55
-7207.4
-5234.32
-9469.88
-7530
-8592.11
-6729.26
-11657.9
-11800.2
-10027.5
-7757.46
-7469.91
-5004.04
-6634.34
-4146.62
-9998.54
-6050.38
-9386.69
-5014.45
-8386.99
-9504.92
-13143.3
-17432.5
-13871.1
-20240
-6469.32
-7632.25
-7827.89
-2807.57
-7747.22
-15124.3
-7496.8
-16326
-13725
-25116.5
-14026
-26554.7
-5789.73
-12999.9
-5440.35
-13994
-7905.7
-6156.53
-11512.7
-4614.71
-7578.93
-1727.4
-9898.34
-1166.18
-7872.2
-9351.9
-12176.5
-5635.59
-6631.7
-11124.3
-10840.7
-7403.96
-835.675
-775.5
-575.448
-664.163
-2658.39
-1946.11
-2423.4
-2206.48
1069.62
558.938
-2836.24
-3138.86
-10683
-10099.7
-7758.19
-6657.48
-4166
-3488.81
-5912
-4864.35
-5662.44
-4124.87
-18330.3
-15963.7
-8058.37
-6789.05
-6183.61
-4640.87
-5160.03
-3260.22
-5556.8
-2366.21
-5623.56
-9257.4
-4916.85
-9409.53
-8451.93
-10525.8
-9511.8
-12946.1
-981.219
-699.801
-748.094
-628.651
-3624.92
-2554.97
-2947.74
-1612.64
-1320.71
-1610.58
-8333.27
-8932.94
-4654.42
-4194.91
-9437.49
-9807.13
-14628.9
-16843.2
422.082
4027.88
-7364.49
-7166.94
-7123.07
-5625.11
-1049.97
-941.821
-1143.25
-936.683
-1671.99
-1093.16
-533.294
-433.821
-8078.15
-3655.17
-6865.97
-3056.81
-9328.26
-3623.1
-11117.2
-3875.61
-5362.46
-10255.9
-7001.5
-10745.3
-8747.14
-11780.4
-11537.3
-12776.1
-5171.17
-9127.83
-4659.26
-9086.91
-8214.18
-10845.3
-9470.4
-11234.7
-13374.5
-13430.8
-14706.3
-13968.2
-5556.28
-8974.11
-6158.17
-9197.83
-328.048
-2020.63
-7679.55
-5080.52
-305.714
-2090.68
-7609.32
-4863.68
-649.208
-2053.78
-7663.4
-5243.39
-856.767
-1994.96
-7544.09
-5160.25
-1048.26
-1142.69
-974.609
-1043.29
-2019.08
-2051.2
-1341.56
-1437.6
-8277.77
-7565.65
-3734.4
-3723.98
-3653
-5147.89
-3942.24
-129.302
-1640.17
-1227.72
-1340.45
-3570.54
2756.71
-686.294
-13929.7
-11728.2
-10479.8
-8999.94
-5459.5
-1143.53
-1021.28
-1169.01
-1436.15
-2020.97
-1577.81
-1842.76
-2442.85
-7869.01
-7706.71
-4120.56
-5291.8
-5003.16
-6684.93
-3098.42
-5026.55
-4743.89
-5165.77
-1009.84
-1392.37
-2642.77
-3976.1
-9678.45
-7917.25
-7551.04
-5518.73
-6499.16
-4615.71
-5656.49
-4067.17
-3999.83
-4363.47
-8232.66
-8105.72
-11125.8
-7155.28
-10411.2
-11137.1
-13056.7
-10968.9
-9206.7
-5660.86
-6740.35
-6701.6
-12144.2
-5875.92
-12956.2
-5932.88
-13966.6
-10826.1
-14747.1
-11073.5
-10058.1
-4373.96
-10698.6
-4427.35
-7386.83
-5710.29
-5711.79
-7772.59
-6292.56
-6622.84
-5615.38
-8043.81
-7645.22
-5276.95
-5760.64
-8333.15
-8665.28
-5208.04
-6628.34
-8049.01
-811.763
-702.492
-1034.5
-770.749
-1358.23
-1629.6
-1501.46
-1124.67
-7491.99
-6561.6
-3511.96
-1576.73
-7841.15
-7420.87
-6051.29
-5431.14
-4995.2
-4291.8
-1747.05
-1823.97
-3783.18
-1733.45
-8616.73
-7368.13
-4833.98
-3864.08
-3700.69
-2399.76
-2660.86
-1233.21
-3923.44
-94.578
-215.385
-97.4386
-33.7102
19.7745
-197.834
-121.371
-38.2545
15.5904
-583.418
-254.8
-5.95343
154.708
-517.862
-293.833
-25.1801
110.355
-960.451
-379.958
33.7507
354.661
-938.599
-451.408
-145.367
20.4598
-649.486
-304.714
-148.328
-47.0107
-503.506
-203.331
-15.9651
100.396
-1444.73
-503.009
-127.927
113.872
-1714.57
-487.792
-107.076
428.654
-1382.24
-480.913
-81.7899
233.16
-1555.29
-438.284
-133.537
385.784
-1354.12
-464.629
-43.5708
249.003
-1778.5
-503.501
-91.6027
501.328
-1230.02
-395.997
33.4749
362.492
-1761.33
-487.033
-68.2149
541.608
-200.717
-80.4958
-12.568
61.8316
-172.539
-61.1711
-26.9947
58.1423
-517.499
-209.968
-17.007
162.797
-433.773
-160.68
-69.3184
151.302
-1027.07
-355.184
-12.399
345.17
-932.271
-308.148
-84.256
312.054
-1139.75
-415.145
-74.5582
260.049
-860.205
-290.156
-110.576
347.407
-1565.22
-437.044
-118.183
546.049
-125.065
-45.7506
-13.8041
38.8809
-58.437
-31.6396
-13.4698
0.559695
-376.566
-132.406
-59.3451
91.0015
-192.161
-94.6275
-49.6077
-6.09017
-668.786
-220.794
-90.9078
163.56
-388.448
-165.964
-77.3791
-4.66066
-1017.02
-318.143
-114.146
249.352
-676.676
-244.772
-102.846
-0.126674
-1338.87
-382.792
-184.494
207.127
-909.464
-295.526
-138.768
-18.4479
-1786.83
-496.218
-198.593
256.93
-898.837
-275.473
-115.41
9.20373
-1722.27
-485.99
-224.624
211.306
-994.908
-306.401
-134.13
-9.1937
-1765.26
-457.451
-150.982
333.43
-806.121
-223.405
-72.9076
48.6752
-1677.95
-395.487
-98.3709
376.54
-716.048
-161.519
-28.3831
81.6767
-3.86721
-7.64954
-5.4092
-3.46576
-2.52225
-20.8882
-15.304
-9.41187
-5.80505
-4.18658
-6.98302
-17.4737
-12.3941
-7.90595
-5.71442
-45.4431
-33.9926
-20.9115
-12.8496
-9.24473
-1.61281
-20.9962
-15.2236
-9.72497
-7.0115
-59.7275
-44.78
-27.3487
-16.693
-11.9635
-29.2317
-22.4869
-13.7771
-8.39048
-6.00886
-2.6745
-9.35606
-6.73756
-4.27603
-3.11264
-11.4591
-23.0632
-15.7606
-9.88984
-7.15229
5.383
-7.5918
-5.89179
-3.80034
-2.77177
-34.9679
-32.2569
-20.1214
-12.337
-8.84829
0.399366
-8.87043
-6.33368
-4.02489
-2.93401
11.522
-10.6931
-8.79917
-5.72952
-4.18163
8.13654
-6.03777
-4.93863
-3.19759
-2.33175
35.2195
-0.227249
-3.37633
-2.59681
-2.00908
23.2863
0.818652
-1.3241
-1.09966
-0.871266
0.88548
-5.31856
-4.02191
-2.62725
-1.92491
-4.28473
-5.34884
-3.53973
-2.24768
-1.63605
-4.69605
-15.2611
-10.6809
-6.83465
-4.9642
-15.6695
-15.3719
-9.76561
-6.12568
-4.44428
10.4909
-16.3319
-12.4723
-8.12687
-5.92472
-26.7218
-22.6559
-14.0115
-8.73778
-6.29898
-32.5357
-26.9917
-16.4151
-10.061
-7.19815
-31.1422
-19.192
-11.2347
-6.90018
-4.92648
-23.536
-15.7204
-9.19323
-5.5579
-3.97331
-48.5083
-200.918
-70.0508
-509.315
16.2086
-696.391
337.881
-609.604
626.409
-26.1475
-743.782
-1263.72
200.945
13.0274
-1170.95
-1855.2
-1478.07
-2116.48
-624.674
-148.186
-33.6685
-7.4756
-1.88305
-163.231
-90.4829
-12.6192
-3.49106
-1.57256
-1929.9
-453.941
-103.397
-22.8341
-5.75844
-390.526
-120.012
-30.916
-6.68615
-1.8491
-3250.7
-764.097
-174.411
-38.6415
-9.72393
-677.408
-213.351
-53.6375
-12.7111
-3.24002
-4376.67
-1028.2
-235.437
-52.3084
-13.1794
-851.548
-278.535
-71.1193
-16.8868
-4.27285
-5504.26
-1299.87
-299.217
-66.772
-16.8907
-1017.74
-350.096
-90.6342
-21.636
-5.51558
-6583.53
-1596.53
-371.92
-83.6261
-21.2402
-1623.18
-497.525
-123.141
-28.3636
-7.12915
-6112.11
-1477.17
-342.729
-76.7636
-19.4397
-1265.97
-419.531
-106.886
-25.1155
-6.32564
-6805.82
-1653.44
-385.942
-86.9179
-22.1099
-1835.73
-545.979
-133.307
-30.2979
-7.59827
-7110.56
-1713.69
-400.678
-90.2112
-22.9371
-1904.73
-568.74
-140.165
-29.6199
-7.85843
-512.791
-7000.8
-6175.09
-2206.32
-1581.59
-921
-3711.78
-2673.26
-6518.77
-6087.42
-3111.9
-2335.75
-352.528
-544.038
-940.022
-1536.18
-2317.34
-3217.11
-255.849
-553.708
-1157.2
-2026.05
-3071.35
-4151.64
-267.274
-123.181
-462.119
-315.508
-856.106
-708.41
-1438
-1331.62
-2080.99
-1995.38
-2748.92
-2472.86
-4016.52
-4570.63
-5008.91
-7530.88
-8489.24
-9388.17
-5070.9
-5613.01
-5618.72
-5157.53
-4443.85
-3906.17
-318.331
-269.523
-204.581
-127.656
-43.378
-490.897
-415.271
-314.939
-196.39
-66.7105
-847.462
-716.179
-542.626
-338.138
-114.823
-1383.18
-1167.29
-883.31
-549.97
-186.683
-2082.55
-1753.89
-1324.89
-824.047
-279.607
-2882.04
-2419.42
-1823.15
-1132.61
-384.242
-230.891
-195.385
-148.227
-92.451
-31.4044
-499.322
-422.126
-319.942
-199.418
-67.7212
-1042.66
-880.609
-666.856
-415.407
-141.037
-1823.17
-1537.65
-1163.01
-723.939
-245.717
-2758.37
-2321.62
-1753.08
-1090.26
-369.963
-3717.59
-3119.81
-2350.8
-1460.73
-495.694
-241.471
-204.52
-155.291
-96.9298
-32.9482
-111.297
-94.2727
-71.5856
-44.6839
-15.1894
-417.189
-353.082
-267.893
-167.111
-56.7808
-284.885
-241.166
-183.02
-114.185
-38.8
-772.249
-653.002
-495.023
-308.592
-104.814
-639.179
-540.643
-409.957
-255.607
-86.8226
-1295.56
-1094.02
-828.278
-515.857
-175.125
-1199.92
-1013.42
-767.326
-477.895
-162.231
-1871.3
-1576.88
-1191.59
-741.174
-251.464
-1794.5
-1512.15
-1142.48
-710.411
-240.965
-2463.42
-2068.17
-1557.99
-967.3
-327.983
-2216.07
-1859.92
-1400.05
-868.357
-294.196
-3579.28
-2989.88
-2245.81
-1394.2
-473.447
-4035.53
-3344.55
-2502.45
-1555.43
-530.659
-4347.92
-3557.74
-2651.29
-1659.35
-574.968
-6325.98
-5073.72
-3780.58
-2424.09
-883.935
-6731.58
-5245.38
-3932.34
-2645.32
-1078.11
-7124.11
-5443.63
-4103.4
-2861.26
-1259.99
-4520.95
-3778.64
-2840.06
-1763.99
-599.128
-4971.68
-4132.19
-3097.23
-1925.23
-655.766
-4926.25
-4062.22
-3036.54
-1894.13
-650.056
-4443.05
-3620.15
-2700.96
-1701.95
-595.887
-3698.8
-2952.57
-2203.8
-1423.88
-525.068
-3131.7
-2446.89
-1829.22
-1216.21
-474.929
-370.152
-598.826
-1037.55
-1684.56
-2527.48
-3481.72
-280.119
-629.349
-1290.46
-2221.32
-3320.98
-4423.97
-283.908
-137.036
-514.291
-360.34
-951.079
-794.249
-1587.78
-1474.42
-2307.17
-2253.25
-3050.79
-2871.85
-4300.44
-4842.95
-5265
-7696.16
-8565.77
-9412.01
-5312.26
-5768.8
-5664.62
-5108.68
-4360.17
-3866.62
-334.346
-283.189
-215.039
-134.226
-45.6185
-540.723
-457.823
-347.533
-216.88
-73.703
-936.266
-792.148
-600.923
-374.842
-127.357
-1518.62
-1283.5
-972.761
-606.434
-205.994
-2275.04
-1919.74
-1453.13
-905.286
-307.45
-3125.94
-2631.14
-1988.1
-1237.77
-420.417
-252.954
-214.207
-162.628
-101.496
-34.4903
-568.094
-480.844
-364.908
-227.68
-77.3641
-1163.99
-984.407
-746.509
-465.557
-158.164
-2001.4
-1690.6
-1280.76
-798.274
-271.143
-2987.08
-2518.78
-1905.59
-1186.92
-403.098
-3968.64
-3337.82
-2520.72
-1569.11
-532.984
-256.565
-217.387
-165.13
-103.106
-35.0536
-123.869
-104.983
-79.7679
-49.8173
-16.9398
-464.604
-393.542
-298.858
-186.565
-63.4175
-325.602
-275.885
-209.57
-130.854
-44.4844
-858.679
-726.889
-551.679
-344.242
-116.985
-717.279
-607.39
-461.123
-287.794
-97.8098
-1432.25
-1211.27
-918.508
-572.798
-194.597
-1330.38
-1125.46
-853.662
-532.436
-180.893
-2078.38
-1755.21
-1329.38
-828.418
-281.357
-2030.65
-1715.58
-1299.72
-810.004
-275.096
-2741.53
-2309.51
-1745.92
-1087.03
-369.137
-2582.84
-2177.35
-1646.55
-1025.06
-347.997
-3843.91
-3222.57
-2429.44
-1512.51
-514.413
-4294.38
-3577.06
-2689.8
-1678.28
-573.692
-4599.32
-3790.78
-2844.69
-1789.47
-621.512
-6510.69
-5262.99
-3951.97
-2548.91
-932.273
-6838.28
-5365.51
-4050.15
-2739.28
-1119.54
-7162.93
-5489.01
-4149.54
-2899.77
-1277.94
-4746.03
-3976.71
-2996.55
-1864.93
-634.096
-5121.14
-4267.84
-3207.68
-1998.26
-681.47
-4977.43
-4115.4
-3085.03
-1929.07
-663.06
-4409.01
-3600.94
-2694.5
-1703.03
-597.785
-3631.87
-2903.14
-2172.66
-1409.2
-521.991
-3099.53
-2422.36
-1813.08
-1208.18
-473.116
-19896.6
-14437.8
-4971.58
-3937.89
-3009.84
-4187.27
-3891.01
-13020
-14575.7
-11513
-13279.7
-7789.39
-11190
-5934.23
-6204.32
-4512
-20522.3
-11247.7
-4277.37
-6997.83
-9199.65
-6301.58
-6925.95
-5235.79
-3213.13
-4619.47
-5185.91
-5308.06
-19503.5
-13005.7
-12809.7
-9141.53
-9093.47
-9663.68
-4512.11
-5675.4
-7114.16
-14116.4
-12152.8
-10129.4
-9254.67
-7813.73
-9395.68
-6433.46
-4954.31
-3748.16
-1889.76
-4405.5
-3667.88
-2758.13
-1721.98
-589.295
-3525.54
-2959.86
-2233.08
-1390.17
-472.57
-2692.03
-2256.82
-1699.56
-1056.07
-358.491
-3757.99
-3161.28
-2386.82
-1484.84
-504.065
-3473.08
-2907
-2188.27
-1360.92
-462.611
-9481.57
-7838.22
-6404.23
-5688.09
-5502.34
-10793.3
-9252.86
-7433.78
-5872.05
-3426.33
-8275.1
-5804.32
-4345.31
-2998.47
-1282.22
-9821.08
-8066.52
-6281.99
-4567.36
-2179.49
-6573.16
-5258.32
-3867.52
-2408.02
-836.448
-8761.52
-6520
-4743.22
-2995.37
-1089.19
-5132.01
-4178.47
-3093.87
-1919
-657.557
-5344.39
-4337.53
-3205.9
-1988.33
-682.063
-3936.69
-3226.73
-2395.38
-1483.07
-505.505
-14369.5
-11420.9
-9405.89
-8187.03
-7319.05
-8720.19
-6655.8
-5028.64
-3422.86
-1482.17
-3689.98
-3003.91
-2231.15
-1393.64
-483.456
-6058
-4956.61
-3706.23
-2335.61
-820.318
-7735.44
-6233.72
-4682.24
-3036.96
-1140.47
-5433.96
-4439.07
-3327.51
-2111.59
-748.651
-6047.92
-4985.77
-3745.5
-2361.44
-823.837
-4605.32
-3810.39
-2856.7
-1785.78
-614.105
-2835.28
-2347.11
-1752.94
-1086.73
-369.686
-4109.07
-3427.82
-2574.09
-1599.38
-543.894
-4535.19
-3728.43
-2777.68
-1726.74
-591.456
-4668.03
-3859.19
-2888.47
-1801.32
-618.056
-13666.9
-11380.5
-9520.2
-8431.43
-7251.58
-9137.12
-6597.83
-5080.17
-3731.11
-1859.04
-9828.45
-7973.51
-6184.45
-4548.75
-2159.55
-7302.46
-5632.12
-4274.86
-2903.94
-1166.45
-7674.43
-6209.03
-4678.59
-3044.08
-1139.06
-7716.99
-5941.77
-4506.1
-3053.99
-1214.89
-3937.76
-3242.47
-2432.13
-1530.67
-533.056
-5037.02
-4195.62
-3151.19
-1961.72
-668.761
-6193.77
-5088.42
-3811.83
-2398.93
-835.6
-464.631
-1329.53
-2127.02
-2889.64
-3619.5
-4304.39
-2693.54
-7228.16
-6843.6
-2627.55
-9172.08
-7697.75
-9135.72
-10099
-2447.55
-1579.1
-5686.75
-3271.48
-10772.4
-7666.22
262.629
-2181.62
-6013.91
-5610.59
-2111.28
-7787.11
-6258.94
-7642.71
-8585.62
-2025.39
-926.411
-4888.51
-1692.14
-8896.16
-4579
1635.53
-1588.23
-4557.09
-4234.11
-1540.03
-6129.21
-3726.47
-6170.65
-6807.69
-1523.51
-844.468
-3452.2
-1765.33
-7069.1
-1780.96
1777.33
-1163.34
-3510.4
-3324.5
-1168.29
-4665.55
-2238.69
-5098.52
-5973.76
-1141.84
-889.34
-2519.47
-1789.51
-6194.09
-330.464
1337.17
-935.433
-2963.93
-2850.36
-980.061
-3727.53
-1844.6
-4553.07
-5780.92
-899.567
-971.677
-1801.57
-1722.73
-5389.56
-116.967
162.828
-823.184
-2634.29
-2609.27
-884.669
-3440.96
-2115.14
-4204.86
-5519.56
-691.133
-762.542
-1478.12
-1684
-5304.28
-953.248
-480.769
-1395.1
-3406.71
-5023.35
-1944.61
-5515.08
-9654.18
-7351.16
-10582.9
-1003.51
-700.501
-3877.2
-2366.55
-1126.72
-9203.07
-4791.61
-1297.73
-3175.71
-4411.4
-1688.89
-5097.23
-8726.3
-6631.86
-9006.03
-1025.88
-617.106
-4012.42
-2233.95
-306.716
-9029.51
-3588.36
-1140.79
-2801.26
-3611.07
-1355.73
-4640.28
-7797.29
-5639.74
-7914.86
-909.663
-708.522
-3427.7
-2323.87
-533.317
-7286.57
-3422.87
-986.066
-2525.22
-2993.74
-1099.95
-4329.4
-7074.18
-5016.96
-7181.46
-834.207
-713.493
-3166.79
-2409.71
-353.578
-6751.46
-3439.69
-891.149
-2272.41
-2656.63
-961.416
-3930.37
-6488.47
-4574.72
-6821.73
-781.055
-768.687
-2876.49
-2606.62
-507.612
-6474.02
-3501.4
-827.662
-2029.13
-2462.51
-884.091
-3628.74
-6404.19
-4247.49
-6595.64
-811.585
-894.129
-2564.29
-2483.51
-766.09
-6622.96
-3879.11
6179.47
7802.75
16154.9
23632.1
24065
41458.6
18460.3
46999.7
15032.8
33008
22510.5
34183.1
20163
26522.9
7620.7
8646.59
15210.1
17419.1
19604.9
19443.4
15413.5
19022.8
22702
20353.5
5110.1
3889.85
6267.7
4241.06
12852.9
10278.5
21970.4
15930.2
16947
17659
18866
18064.5
6670.1
5176.93
40115.6
53697.6
25921.5
31818.8
53876.5
69916.9
27861.5
31900.3
29776.3
42054.1
25996.3
34444.4
15247.7
24543
2774.94
952.77
2843.68
1038.02
8846.93
3574.5
12157.8
4479.46
8672.55
3320.97
9173.47
2944.15
15633.5
4979.02
20163.9
6809.82
24538.1
12211.8
22463.9
13309.6
22947.7
14845.8
20187.3
15148
17712.8
10529.5
17730.9
9062.94
23182.3
14791.7
23235.9
14920.7
21329.8
16018.9
21588.2
16080.9
19127
12137.2
19808.6
12429.3
18121.6
7873.41
8397.22
10263.4
18194.9
8617.8
7348.77
10434.2
19188
7827.81
9501.37
10319.3
20138.5
8012.67
10325.4
10768.9
3581.52
3872.51
1233.31
2382.14
11082.6
11733.5
4300.82
7695.02
14251.9
15808.1
6937.78
11827.9
12301
950.796
13768.9
17108.2
9360.62
606.217
7374.2
12443.8
20114.7
14182.2
10110.8
12336.8
10859.5
9432.34
14831.5
3320.31
2693.82
1881.4
1888.3
10263.1
8602.31
6270.15
5935
12743.8
10695
8109.49
7258.3
5808.04
7429.29
12049.8
12525.2
14259.9
12959.4
16090.4
13952.9
11032.9
9291.58
9144.46
9545.27
12100.2
9421.67
11074.3
7940.67
9630.31
6540.68
11322.9
7379.57
10330.1
4666.99
8903.53
9565.4
12663.8
16421.8
13945.4
20238.9
7110.07
7816.78
9169.08
2749.4
7947.39
15246.8
7546.77
16375.8
13814.2
25003.9
14058.1
26569.5
6040.29
13150
5502.25
14042.4
8369.31
6249.55
11695.8
4570.28
8558.8
1512.58
10167.2
597.301
8060.63
9439.74
12261.3
5636.93
6682.96
11155.3
10865.2
7413.53
2089.3
1846.44
1658.8
1547.62
1422.66
1274.4
6976.78
5645.56
4829.69
4525.25
3581.44
3066.61
8443.91
7206.03
6621.4
5397.43
4341.97
4075.28
6473.11
5651.72
5485.66
10873.6
8138.58
6798.37
10335
7516.52
6031.48
10829.5
8434.69
7281.61
6856.01
4449.62
3434.36
15640.6
13364.4
11457.6
10131.7
8318.14
6812.31
9091.01
6954.98
5458.65
7708.96
5476.82
4126.74
8051.35
4428.78
2444.28
10469
14171.5
8294.37
10710.5
11355.9
16655.6
10160.8
14761.8
66.6283
623.396
-433.176
58.0119
2962.78
3407.27
1233.64
738.567
665.265
2369.42
9436.72
13752.9
6640.2
3681.12
10015.6
9948.76
15512.6
17094.1
-625.287
-4199.72
7612.88
7176.07
7252.47
5593.31
888.698
487.919
568.666
239.528
2015.38
177.071
-302.748
-848.912
9227.52
2342.69
6270.6
1610.64
9096.36
2759.37
11017.3
3524.06
8895.26
11963.5
8216.76
11660.1
14390
15178.7
13723.4
14359.8
5627.18
9356.63
6505.6
9300.95
8720.39
11227
9619.7
11335.3
14298.7
14096.3
14969.8
14147.4
5681.69
9048.68
6183.73
9208.97
-227.94
1239.16
7287.26
4456.58
-785.544
828.833
6750.4
3930.85
235.161
1504.9
7448.03
4862.75
686.038
1774.02
7479.39
5029.18
-674.11
-768.423
140.91
-9.88195
-2942.59
-2965.69
-250.118
-420.879
-671.729
-2048.77
1587.64
915.28
-10269.3
-9665.74
-5592.02
-4326.55
-519.498
-10573.1
-10793.3
-4315.95
-6392.69
-927.025
10361.6
8069.27
7086.39
6580
3896.11
-777.871
-703.823
-73.3027
11.9836
-2549.54
-2461.7
-153.761
67.4385
-2602.64
-3083.52
582.123
859.979
-5128.79
-2266.89
-8106.88
-5011.19
-3630.71
-2716.03
-4116.11
-3526.57
310.838
1192.96
3802.51
2394.95
1044.05
-995.52
955.473
-773.211
1590.72
279.714
1905.22
2159.31
5191.34
4725
9890.17
5948.43
8144.91
8157.5
12360.7
9989.5
7711.72
4498.18
3816.96
3770.26
11667.7
5129.16
12834.1
5752.9
13788.4
10196.2
14714.4
10939.9
9376.47
3648.1
10507.3
4235.4
5971.07
4666.13
4470.22
6609.67
3823.21
4277.34
3804.77
6125.52
6910.17
4596.9
5059.21
7595.34
8436.02
4995.34
6401.58
7838.78
-701.407
-722.007
-805.154
-57.174
-268.78
-294.447
-2651.08
-2787.07
-2773.99
-215.525
-767.312
-769.011
-3400.53
-3734.47
-3806.93
496.682
-762.818
-1019.46
-1179.45
-998.089
-695.098
-3609.44
-3659.35
-3394.15
-2946.44
-3290.27
-3220.25
-3650.57
-3865.7
-3748.92
1191.04
-348.336
-458.997
3487.66
1997.63
1076.45
-928.394
-1984.14
-2546.12
-919.075
-2251.66
-2829.05
-431.583
-1861.41
-2269.39
2100.19
-479.367
-781.535
-25.6179
-32.9073
-40.1382
-59.8273
-242.262
-132.333
-107.667
-100.489
-18.5331
-72.4586
-165.223
-248.172
-420.25
-260.26
-289.976
-300.958
200.039
-27.9986
-237.582
-444.083
-162.972
-211.529
-264.167
-292.599
-37.7802
-125.729
-122.068
-117.112
203.168
8.71946
-106.997
-177.347
888.793
185.263
-73.5175
-255.17
1386
324.04
17.667
-446.821
606.903
76.0801
-154.68
-389.988
1134.15
245.26
34.7173
-387.082
952.099
222.229
-102.45
-331.3
1557.94
386.354
20.9475
-527.819
1065.46
293.347
-96.2815
-398.897