/*--------------------------------*- C++ -*----------------------------------*\
  =========                 |
  \\      /  F ield         | OpenFOAM: The Open Source CFD Toolbox
   \\    /   O peration     | Website:  https://openfoam.org
    \\  /    A nd           | Version:  11
     \\/     M anipulation  |
\*---------------------------------------------------------------------------*/
FoamFile
{
    format      ascii;
    class       volScalarField;
    location    "1.8";
    object      gradTy;
}
// * * * * * * * * * * * * * * * * * * * * * * * * * * * * * * * * * * * * * //

dimensions      [0 -1 0 1 0 0 0];

internalField   nonuniform List<scalar> 
5712
(
11947.5
6890.7
19348.2
12698.1
21127.6
15653.1
33122.9
41132.3
43571.7
53395
28200.1
24525.6
17907.4
14211.1
8996.19
6088.14
19988.4
20371.2
17250.1
20224
27004
24024.4
31232.9
25191
8413.38
6036.29
4735.41
3523.31
10046.9
8171.17
6112.11
4952.26
18381.6
19025
18722.9
15709.3
14509.4
11398.3
11432.8
13001.4
18413.3
18343.6
38728.6
40056.4
27367.9
28217
15702.3
13241.4
17056.6
12150.6
7934.22
8159.97
6541.21
9258.3
3425.43
4158.28
8959.17
12393.3
5345.28
6268.25
9897.1
16796.5
6871.24
11318.1
2615.74
6717.95
2176.69
5007.39
17925.2
22165.9
18556
22109.2
21906.7
22096.9
22370.9
21851.5
15828.7
21478.7
16218.5
21191.5
18303.9
21978.2
18311.9
21938.3
22591.8
21594.5
22533.3
21400.5
14642.3
21580.6
14145.1
21664.2
17979.6
21205.5
22700.8
31819.9
19047.4
24537.2
22503
34623.7
17044.9
18642.4
22785.2
30560.1
16865.3
17433.7
23029.2
30315.1
5482.72
7203.85
14009.6
24576.6
6780.05
7736.82
17997.8
27880
8411.95
8506.63
22757.6
31008
24712.5
26384.2
21055
20480.8
29963.7
26522.2
25165
21466
18721.7
34325.5
24191.9
23986.8
21497.8
21557.5
39113.3
2105.62
2532.76
4529.25
10424.9
2982.82
3389.88
6230.3
11635.2
4430.4
3756.42
8443.02
13280
26173.2
25713.6
23700.8
23174.8
20468.8
18614.4
15569.6
13711.4
11075.2
15509
23874.7
22939.5
24168.8
23671.3
21125.1
19716.6
17597.5
15732
11788.5
15614.7
23999.5
26989.2
23948.4
27681.5
23109.7
23875.5
22579.2
24077.3
21926.3
22290.9
21742.2
21632.5
23767.9
27808.9
23667.3
27792.4
21930.3
24390.9
21757.3
24343.8
22011
22240.4
22009.8
22230.7
18529.1
17610.4
11971.3
13343.3
18407.9
17155.5
11795.8
13419.4
18781.9
17552.4
12229
13385.7
18857.6
17373.3
12608.3
13389.1
1700.19
1137.11
782.804
978.11
662.956
616.841
2369.78
1392.96
1045.47
1921.55
1530.78
1309.36
2731.13
2233.12
2223.54
3371.83
2731.24
2439.5
24371.5
21803.4
20035.5
22512.9
20690.2
19267.9
16205.8
14907.8
14191.7
11085.8
9502.99
8825.95
5147.37
3746.78
3152.17
22089.2
20246.9
18726.1
22782.4
20548.6
18850.3
16956.8
14398.9
12956.7
11114.7
8776.76
7819.36
5469.39
3724.27
2965.26
27333.4
26696.1
29815.5
26707.1
30688.5
26708.5
37111.2
28172.5
21147.2
21423
20900.4
19369.7
23729.6
22305.6
23328.2
19907.8
23100.4
22892.6
21264.2
22699.4
28255.6
25429.3
28161.9
28612.9
30628.8
31699.1
23442.5
24342.4
20984.4
20377.8
25494
26170.8
16542
8947.11
15488.6
9900.34
16791.1
9028.98
15453.5
9841.25
16567.2
9075.84
15416.3
10254.9
15006.7
10727.7
15194.9
10640.2
21308.3
18176.7
21227.1
18174.9
23551.8
21235.6
23831.8
21052.6
20773.2
15159.9
21628
14941.5
21724.5
18102.7
22012.2
17903
24475
20896.6
24506.3
20636.1
20597.1
15216.4
20549.9
15126
13625.4
9116.3
12006.3
7753.57
12679
8171.03
11527
7249.23
13973.2
9684.52
12207.3
7989.55
13998.3
10030.3
12179.2
8047.86
2600.9
1361.82
4783.11
2592.22
2776.57
1671.78
5097.16
3102.78
3417.63
2524.48
5645.42
4058.75
13153.5
20381.5
9492.04
9115.93
6527.66
19932.4
13871.5
8142.96
8193.22
5382.14
20766.9
16336.1
12987.4
10121.5
6363.3
731.533
551.094
1500.71
1113.7
1035.09
714.943
2108.34
1681.79
1794.92
1385.42
3054.02
2489.81
20190.2
19458.6
13670.1
13039.2
8887.07
8905.26
7488.63
6836.45
4605.7
3778.49
18967.5
17182.5
14688.1
12837
11431.8
10098.2
8707.4
7814.27
5618.18
5512.1
15078.6
12147.4
15184
11872.5
18151.9
15021.8
18129.3
14835.3
12701
10250.5
12315.1
10275.4
15196.4
11698.3
15106
11682.7
18069.2
15130
17900.7
15090.2
12935.1
10098
12914.7
10232.4
9901.95
8334.6
6615.07
6907.87
9537.92
8146.91
6313.15
6543.79
10324.4
8501
6784.17
7308.82
10568.4
8500.26
7048.01
7413.87
1717.7
1507.7
1247.3
7386.99
3957.58
3234.93
1672.55
1644.79
1458.99
8036.11
4695.05
3978.29
2302.69
2573.54
2634.2
8920.2
5901.45
5251.22
18188.2
16860.2
15924.3
12418.4
11937.1
11637.4
9041.67
8854.65
8807.94
7729.4
7420.54
7211.32
10198.9
7314.14
6597.05
15537.4
14179.7
13276.3
11543
10633.2
10118.4
9574.19
8798.87
8364.39
9169.45
8074.17
7442.88
12426.3
8262.69
7399.57
4956.99
3108.05
2163.74
1736.48
5576.61
3374.72
2282.2
1779.36
4982.76
3105.4
2168.72
1748.8
5698.3
3444.55
2329.64
1804.12
4970.75
3073.59
2178.03
1748.68
5814.58
3488.83
2386.56
1814.91
6258.26
3694.01
2432.81
1873.37
6445.17
3837.16
2506.55
1939.28
5299.32
3272.04
2267.09
1774.7
4338.93
2871.55
2080.27
1703.77
4651.29
2964.4
2117.81
1659.38
3995.68
2706.97
1997.7
1637.64
5734.87
3504.92
2371.49
1849.38
4545.07
2992.12
2132.8
1755.52
5981.2
3663.85
2447.25
1906.01
4636.43
3078.82
2178.17
1788.37
3743.15
2668.34
1972.98
1648.98
2431.4
2142.81
1740.37
1550.61
3754.64
2655.96
1970.61
1645.7
2540.02
2172.55
1751.05
1559.32
3846.76
2655.2
1983.26
1656.42
2869.61
2269.81
1790.23
1597.29
3802.52
2591.2
1949.2
1689.95
3154
2338.17
1841.42
1591.51
3537.31
2515.67
1904.68
1613.75
1113.13
1716.95
1387.44
420.625
-355.49
1480.6
1245.26
442.303
1350.03
1795.52
1419.36
443.776
-64.2872
1567.9
1272.69
451.747
1795.99
1934.9
1466.92
442.383
432.101
1715.69
1312.51
456.868
2344.21
2101.45
1538.61
480.189
965.215
1880.47
1370.64
476.473
2710.79
2254.87
1627.81
558.298
1119.55
2006.63
1424.88
493.649
2895.17
2425.19
1667.14
531.814
834.556
2143.71
1526.37
524.044
2822.49
2349.79
1637.3
531.964
791.139
2080.13
1474.88
506.044
2920.01
2478.72
1689.26
496.484
782.461
2198.22
1560.13
527.215
2981.64
2534.83
1733.64
506.925
885.307
2257.19
1601.36
540.023
1514.92
1117.5
747.507
425.383
137.736
1498.85
1115.33
748.113
425.979
137.939
1533.97
1126.89
751.966
427.406
138.318
1522.92
1127.33
754.066
428.744
138.743
1571.09
1140.26
757.745
429.964
139.049
1553.32
1141.58
761.077
432.019
139.705
1575.97
1157.78
770.331
436.609
141.084
1613.01
1180.99
783.465
443.135
143.046
1608.67
1156.31
766.071
433.958
140.236
1716.47
1175.79
771.533
435.95
140.774
1616.47
1152.14
762.062
431.741
139.544
1714.17
1168.73
767.099
433.703
140.088
1623.2
1170.52
774.345
438.092
141.484
1747.84
1189.57
779.062
439.682
141.902
1660.34
1193.06
786.705
444.181
143.316
1787.26
1209.69
789.762
444.942
143.491
1556.34
1123.12
747.452
424.909
137.56
1635.57
1129.45
747.604
424.629
137.452
1574.32
1130.53
750.773
426.376
137.974
1649.93
1135.05
750.144
425.757
137.772
1611.12
1142.95
755.993
428.669
138.624
1681.5
1145.25
754.649
427.77
138.344
1670.24
1157.14
761.277
430.921
139.256
1719.35
1156.18
759.779
430.099
139
1726.05
1164.44
764.272
432.263
139.642
10304.3
15886.5
10770.4
16148.4
11446
16471
11874.4
16634.8
11332.8
15913.8
10425.8
11758.5
10461.6
12369.9
10471.2
11634.4
10647.5
11765.3
9147.55
1567.45
335.188
75.2457
13.3339
10180
2899.32
704.439
159.95
28.3327
9220.76
1552.08
329.579
73.7176
13.0291
10244.3
2881.4
697.581
157.666
27.6918
9270.3
1539.72
324.311
72.2442
12.7439
10274
2860.25
688.966
155.183
27.2195
9142.34
1486.47
310.4
68.99
12.1641
10109.3
2789.34
669.647
150.615
26.3954
8626.22
1367.19
284.951
63.5423
11.231
9532.93
2635.64
634.94
143.241
25.1439
7612.47
1254.46
270.024
61.2131
10.9049
7794.72
2262.32
559.696
128.403
22.7611
7914
1283.36
272.99
61.4928
10.9183
8299.14
2404.38
589.536
134.156
23.652
7490.66
1246.2
269.466
61.2307
10.9187
7616.87
2196.99
543.965
125.189
22.2548
7454.19
1235.02
266.811
60.6475
10.8051
7614.47
2180.01
538.288
124.161
22.0358
34093.1
48432
47307.8
33065.6
19430.4
20458.3
28658.9
29964.6
22472
25210.1
35767.3
48861.2
45238.1
59985.3
29527.8
33681.8
23149.3
24749.5
12559.2
13777.7
4882.73
3196.81
782.698
590.414
666.985
579.955
717.819
4732.44
4626.71
2769.34
3871.94
3681.47
1574.45
2201.93
1978.38
1288.33
1490.75
1211.93
4276.75
2267.7
1410.36
1243.4
1604.4
1384.13
1070.92
1004.89
934.054
815.181
1128.54
1015.04
4496.29
2692.42
3099.55
1940.08
1579.83
2256.93
1091.96
841.172
1205.93
9862.97
9833.33
9909.72
10979.2
17755.1
7035.38
7981.71
8634.44
9596.2
11090
2052.94
2920.51
3573.37
4014.61
4241.78
1561.74
2248.69
2777.35
3135.84
3317.76
1762.03
2531.07
3117.12
3509.89
3707.13
1535.9
2214.86
2737.91
3091.48
3269.87
1891.03
2705.88
3323.17
3737.38
3946.76
9888.8
10078.2
9838.69
10307
15852.1
9644.31
9658.25
9261.34
9378.49
10612
6327.79
7427.81
7941.39
8416.19
9029.37
8317.46
8647.7
8346.54
8216.44
8379.29
7905.63
8296.9
7989.12
7735.67
7704.07
3907.87
5131.56
5882.79
6349.76
6608.07
5207.61
6390.16
6975.74
7340.63
7605.01
4742.74
5918.46
6502.98
6806.03
6962.77
3271.62
4433.87
5199.64
5673.97
5913.31
3717.81
4908.29
5632.75
6056.83
6266.81
3097.48
4234.17
4994.06
5461.41
5690.26
9110.02
9601.36
9651.28
10372.2
16148.5
5361.06
6621.91
7368.37
8007.54
8667.88
3554.39
4772.71
5575.72
6100.76
6396.56
3170.16
4330.89
5134.16
5671.59
5970.18
3979.37
5240.16
6066.01
6654.66
7053.46
3497.91
4727.15
5577.05
6174.76
6537.21
2761.59
3838.49
4621.19
5159.64
5455.96
2606.86
3649.07
4405.83
4911.36
5175.37
2435.7
3430.32
4150.89
4617.95
4850.04
2138.4
3039.4
3708.93
4151.16
4372.78
2903.2
4010.57
4780.92
5276.29
5529.48
2630.96
3676.22
4427.2
4920.98
5174.85
9311.46
9566.95
9695.47
10667.7
17026
6120.86
7244.43
7998.55
8882.16
10035.7
7155.84
8302.6
8832.74
9706.36
11700.1
4701.7
6033.03
6933.65
7695.72
8340.82
3936.61
5227.83
6114.62
6780.85
7236.26
5344.04
6636.26
7447.63
8186.41
8955.59
2814.14
3905.87
4692.18
5226.56
5517.24
2201.35
3119.72
3801.55
4256.02
4487.46
3083.52
4232.1
5040.4
5589.61
5896.59
18821.6
12513.6
19377.8
13858.5
25078.4
35939.6
26232.1
35780.6
19904.3
21023
17098.2
20338
22555.5
21398.9
28807.5
23542
14548
13655.2
7128.23
6105.77
15843.2
14529.3
8181.03
6696.44
19611
21171.9
20064.3
18273.4
20495.4
13496.4
11256.4
12975.5
18363.2
18326
38241.6
39963.4
26659.2
28028.6
16335.7
13378.8
17796.1
12285
8636
8330.76
14414.6
15986.6
6026.89
6586.67
15843.9
18124.4
7509.55
8307.32
15082.2
21153
8752.28
13533.9
3053.58
7481.14
2264.73
5156.22
18493.8
21113
18438.8
21497.5
20096.6
20351.9
21206.6
20880.1
16893.2
21361.2
19173.4
21062.6
18134.2
21651.1
18242.8
21832.2
21996.2
21100.4
22358.9
21247.9
14964.1
21491.5
14198.5
21627.7
18922
22472.1
22957.6
32130.8
20627.6
26645.8
23045.2
35270.5
17474.5
19254.3
22882.8
30695.3
16975.8
17603.7
23047.6
30349.9
19778.9
21353.5
24879.7
36966.5
19875.4
20319.2
26616.9
37432.1
19547.8
19186.6
28620.5
37096.3
18690.8
19482.6
20081.4
21492.5
32519.2
18707
17554.9
21416.8
19618.3
37215.2
19518.7
20452.5
20398.7
22264
40191.6
11730.1
10700
10958
14240.5
12844.4
11735.2
11349
14624.1
14146.1
12226.1
11863.3
14932.2
18089.2
17317.2
17054.3
16524.7
19821.2
18455.6
16435.8
14753.2
12415.7
15566.8
19133.6
18834.5
20369.1
20435
19648.8
18440.9
17925.3
15890.4
12218.4
15038.2
22190.6
24938.8
23043.9
26585.6
20881.4
21738.1
21516.4
23028.5
21448.4
21660.8
20916.5
20623.2
23328.5
27281.6
23534.2
27635.8
21436.3
23885.3
21611.3
24196.6
21753
21918.9
21928.1
22134.9
18423.3
17366.1
12021.4
13255
18358.5
16887.3
11998.8
13325.1
18697.9
17406.7
12231
13326.6
18825.8
17325.8
12603.7
13367
9773.1
9923.34
4225.52
3883.49
10900.9
10535.5
4733.46
4522.34
10613.5
9917.68
5382.85
5186.82
16980.4
16406.1
16667.8
16686.1
16718.2
16151.3
12646.3
11271.4
6356.3
5225.91
19034.4
18183.5
20475.4
19597.6
16360.6
15095.3
11823.9
10101.8
5838.77
4359.16
22388.5
21231.5
27554.8
23998.7
24994.5
22217.8
34357.2
25825.2
20458.9
16843
22338.4
17706.7
20327
17123.2
22432.6
17940
20953.7
18514.7
18910.5
17532.7
21403.3
22755.5
26808.8
28203.4
29502.8
31375.4
22106.5
23873.9
19927.1
20076.5
23967.4
25657.5
13728.8
10161.5
14190.9
10394.7
14009.6
10074.7
14386.3
10248.9
13911.1
9925.4
14326.4
10447.4
14373.4
10761.1
14987.6
10644
17432.1
16878.3
19304.2
17374.1
20022.7
19150.9
21964.6
19897.7
18956.6
14861
17969
14658.7
20773.5
17677.8
21730.1
17774.4
23571.3
20316.8
24245.4
20461.4
19697.2
15028.4
20287.2
15067.6
13219.9
9528.9
12209.4
8134.5
12625.5
9234.03
12128.3
8054.15
13659
9835.8
12270.1
8167.38
13888
10066.1
12195.1
8105.51
13183
13281.8
9541.48
8800.76
13316.9
13392.8
9396.48
8728.15
13262
12869.6
9164.74
8629.15
15384.5
18185.2
16169.1
12037.8
8899.91
16856.3
15741.7
17559.2
12050.3
8599.85
18592.5
16432.9
14555.6
12218.2
7979.74
13748.7
14745
8708.96
9311.35
13617.7
14372.1
8635.08
9190.51
12727.4
13090
8275.87
8365.08
16632.9
15692.2
14986.7
14341
15523.1
15841.5
12104.2
12767.1
8044.08
7836.42
16842.5
15362.8
15122.5
13721.9
13571.2
12867.4
11489
11374.3
7438.1
7829.46
14814
12565.3
14896.5
12011.5
16828.4
14205.8
17367.7
14405.1
12872
10813.9
12949.2
11564
15012.1
11754.7
15048.3
11697.3
17688.1
14917
17787.1
15029.3
12956.3
10338.8
12907.8
10292.8
10399.3
9121.08
7107.08
7637.14
10676.7
9795.86
7285.27
8009.2
10521.9
8848.52
7012.9
7695.92
10624.1
8600.93
7125.12
7535.02
17350.7
17270.5
23316.4
19721.6
16687.6
16712.8
22367.8
18861.1
14675.5
15231.2
20545.3
17536.8
15135
14568.1
13850.8
13599.1
15919.2
16275
14569
14470.7
18855
16033.5
14265.2
13515.1
12962.1
12721.6
13108.4
13366.7
13898.5
13531.4
18352.6
14679.2
6425.82
4075.98
2737.4
2114.47
6663.06
4203.42
2810.96
2133.46
6313.76
4004.3
2692.82
2092.91
6605.06
4161.12
2786.73
2111.93
6109.9
3864.32
2637.52
2049.67
6518.83
4065.73
2769.04
2074.76
6668.33
4056.44
2690.3
2056.19
6582.2
3963.11
2593.62
2002.86
5895.32
3728.55
2580.25
2002.34
4743.33
3199.18
2303.21
1875.33
5591.45
3614.06
2525.43
1938.05
4656.41
3210.45
2295.61
1843.55
6063.4
3777.38
2567.93
1995.33
4763.48
3177.27
2272.32
1871.7
6083
3755.03
2514.69
1957.01
4705.29
3139.15
2225.77
1828.28
5932.22
3835.16
2605.57
2054.07
5117.24
3480.06
2431.09
1982.4
5784
3760.87
2563.9
2023.52
5015.55
3437.74
2407.67
1971.99
5576.4
3640.53
2516.45
1998.92
4940.55
3382.23
2380.31
1968.55
5134.01
3419.59
2406.98
1990
4769.57
3289.8
2342.66
1893.52
4516.42
3196.6
2274.73
1845.63
3924.46
3117.52
2031.57
575.674
2087.51
2886.19
1901.98
628.736
3957.72
3115.47
2032.98
595.735
2237.72
2888.58
1899.53
631.196
4018.97
3095.04
2010.55
569.539
2446.28
2875.13
1874.93
616.974
3975.51
3044.15
2016.73
598.658
2462.43
2830.24
1856.13
617.125
3712.5
2942.28
2015.2
673.255
1969.58
2723.73
1821.26
613.342
3205.16
2717.19
1898.19
615.317
1001.55
2454.9
1736.82
595.751
3387.45
2813.56
1951.78
633.203
1183.59
2571.07
1773.28
600.847
3074.93
2639.14
1829.27
549.107
845.409
2367.6
1683.36
570.891
3026.55
2585.97
1779.9
524.723
898.304
2310.15
1641.22
554.396
1791.31
1279.76
835.98
468.521
150.584
1751.5
1269.3
833.082
467.572
150.34
1790.19
1274.93
832.586
466.712
150.025
1745.8
1261.8
828.196
465.035
149.565
1804.83
1270.96
828.587
464.472
149.326
1741.44
1253.05
822.395
462.029
148.654
1705.2
1235.1
813.044
457.554
147.334
1660.54
1210.14
799.658
451.094
145.425
1781.09
1257.1
820.889
460.702
148.205
1880.19
1265.55
819.726
459.39
147.755
1835.55
1271.88
826.463
463.059
148.867
1925.23
1276.59
824.565
461.589
148.386
1737.09
1239.66
812.233
456.624
147.012
1853.92
1250.39
811.965
455.732
146.688
1699.76
1217.01
799.898
450.654
145.251
1823.71
1230.86
801.265
450.572
145.176
1869.71
1295.13
839.451
469.517
150.826
1998.6
1309.01
841.87
470.143
150.973
1873.58
1292.17
837.072
468.21
150.416
1999.9
1306.34
839.986
469.134
150.66
1889.52
1288.23
833.292
466.13
149.765
2006.35
1301.17
836.367
467.239
150.073
1931.15
1286.9
829.908
464.156
149.14
2016.03
1293.42
831.859
464.953
149.361
1975.15
1284.01
827.56
462.923
148.762
12121.5
15992.9
12179.7
15995.2
12304.6
15981.9
12083.6
15768.4
11269
14966.6
10398.3
11652.3
10450.2
12152.5
10448.5
11579
10639.1
11748.2
9383.46
1566.36
330.467
73.7028
13.0177
10103
2867.73
692.972
156.638
27.6652
9339.57
1539.94
323.667
72.0481
12.7035
10054.2
2830.94
683.441
154.028
26.9985
9210.39
1510.86
316.613
70.3854
12.4034
9929.29
2783.89
671.236
151.117
26.4882
8934.99
1446.36
301.834
67.1041
11.8334
9663.41
2696.76
649.929
146.385
25.6649
8407.22
1330.87
277.528
61.9338
10.9515
9125.01
2549.72
616.665
139.363
24.4822
7542.84
1240.84
266.701
60.4106
10.7581
7703.71
2230.83
551.277
126.399
22.4008
7794.29
1260.39
267.733
60.2865
10.7037
8119.4
2348.9
576.024
131.13
23.1258
7453.43
1238.91
267.637
60.775
10.8336
7571.95
2181.18
539.528
124.089
22.0515
7442.43
1232.71
266.227
60.5001
10.7773
7600.7
2175.25
536.925
123.815
21.9709
33650.7
48158.3
46320.4
31723.7
24723.9
29544.4
23881.9
29423.2
27762.4
44236
29461.8
45316.4
157.256
172.452
206.158
261.162
342.245
455.38
169.91
185.667
220.491
276.776
358.03
468.618
147.797
143.156
163.798
160.679
199.442
199.918
258.115
265.763
343.647
360.807
457.046
476.454
608.135
809.176
1077.94
1443.5
1870.25
2178.05
613.243
795.754
1018.91
1274.26
1521.52
1682.51
420.867
616.913
774.435
884.474
941.031
461.286
675.619
847.492
967.34
1028.86
550.967
805.857
1009.5
1151.06
1223.58
697.024
1017.34
1271.86
1448.04
1538.06
911.552
1326.26
1653.27
1878.36
1993.06
1208.99
1750.56
2172.97
2461.86
2608.82
454.542
665.89
835.495
953.839
1014.61
496.39
726.516
910.75
1039.04
1104.82
588.876
860.455
1076.94
1227.18
1304.07
738.016
1075.71
1343.26
1528.1
1622.47
952.462
1383.39
1722.03
1954.76
2073.36
1242.46
1795.59
2225.62
2519.61
2669.42
395.604
580.052
728.411
832.131
885.462
383.185
561.903
705.733
806.328
858.054
438.227
642.086
805.745
919.965
978.619
429.893
629.942
790.624
902.803
960.41
533.159
780.171
977.775
1115.26
1185.72
534.438
782.105
980.307
1118.23
1188.91
689.135
1006.4
1258.86
1433.74
1523.12
709.527
1036.15
1296.05
1476.04
1567.98
915.715
1333.26
1662.96
1889.97
2005.59
961.322
1399.37
1744.99
1982.69
2103.61
1214.35
1760.23
2186.65
2478.06
2625.99
1265.98
1835
2279.03
2581.84
2735.17
1606.09
2307.79
2846.74
3213.23
3400.31
2118.7
3007.75
3676.67
4131.93
4368.88
2782.13
3873.58
4673.16
5227.72
5533.8
3637.9
4910.89
5814.97
6482.05
6905.75
4561.64
5908.28
6840.03
7613.07
8222.85
5199.85
6554.59
7481.95
8327.42
9088.88
1617.91
2321.57
2861.17
3228.67
3416.89
2084.51
2961.27
3622.34
4073.06
4307.63
2642.36
3702.54
4486.31
5026.69
5318.25
3261.11
4489.98
5379.98
6010.5
6373.56
3838.22
5187.1
6147.62
6856.25
7299.92
4205.8
5618.47
6616.68
7376.52
7879.54
159.449
179.149
217.96
279.01
367.402
489.276
172.191
192.628
232.622
294.769
382.596
500.092
149.976
145.395
170.536
167.658
211.468
212.524
276.669
285.601
370.312
389.289
494.631
517.959
650.705
856.87
1124.23
1478.59
1888.95
2183.36
650.706
836.264
1057.63
1305.38
1540.91
1688.98
426.743
625.583
785.426
897.128
954.548
479.33
702.36
881.44
1006.47
1070.71
582.797
853.115
1069.62
1220.47
1297.88
745.26
1089.2
1363.6
1554.25
1651.94
979.786
1428.48
1784.5
2030.99
2157.11
1301.43
1890.23
2353.78
2673.52
2837.14
460.673
674.966
847.025
967.135
1028.82
515.168
754.397
946.213
1079.98
1148.64
621.633
909.184
1139.06
1299.01
1381.02
786.702
1148.38
1436.22
1635.91
1738.17
1019.15
1483.46
1850.71
2104.63
2234.57
1328.31
1925.39
2393.78
2716.62
2882.03
401.452
588.686
739.345
844.709
898.893
389.197
570.775
716.962
819.236
871.832
456.366
668.931
839.784
959.159
1020.51
448.672
657.717
825.823
943.316
1003.7
565.568
828.232
1038.85
1185.71
1261.09
568.403
832.457
1044.27
1192
1267.82
739.251
1081
1354.01
1543.84
1641.11
763.124
1115.96
1397.9
1593.93
1694.35
988.047
1441.65
1802.14
2051.86
2179.6
1038.71
1515.63
1894.65
2157.13
2291.31
1316.92
1915.34
2387.61
2713.46
2879.97
1379.44
2007.07
2502.58
2844.27
3018.67
1723.21
2487.15
3081.88
3491.24
3701.84
2251.88
3216.1
3955.11
4465.97
4734.19
2914.98
4089.08
4969.94
5591.88
5937.37
3744.58
5095.3
6080.7
6819.31
7288.08
4625.09
6028.11
7020.98
7851.24
8501.24
5220.02
6595.47
7545.61
8413.25
9191.32
1720.83
2478.87
3067.09
3471.9
3680.58
2196.98
3135.88
3854.24
4350.04
4609.8
2751.63
3876.02
4721.24
5311.5
5631.72
3351.1
4637.26
5584.3
6262.85
6654.59
3896.06
5284.95
6286.54
7030.98
7497.05
4225.53
5652.58
6665.8
7439.01
7950.62
4866.14
3196.24
840.912
639.09
736.258
635.035
782.723
4452.7
4263.82
2745.26
3484.34
1656.51
2219.75
1381.66
1540.24
1289.31
4152.63
2302.76
1498.84
1327.58
1678.05
1453.78
1130.71
1080.74
1032.32
902.849
1223.3
1101.52
4448.09
2699.21
3077.18
1972.29
1633.42
2288.48
1161.63
914.888
1282.73
9862.96
9886.24
10009.7
11140.8
18048.5
7049.89
8028.79
8717.23
9717.95
11248.6
2215.86
3176.3
3916.28
4426.73
4692.74
1695.67
2453.95
3046.71
3454.47
3663.35
1953.57
2826.73
3507.77
3974.48
4212.59
1687.41
2446.93
3042.28
3451.38
3660.17
2071.75
2987.55
3698.29
4185.85
4435.95
9767.79
10780
11303.4
12489.2
19223.8
9559.9
10773.7
11489.5
12567.7
14550.4
6512.25
8152.3
9275.96
10296
11274.4
8292.09
9927.77
10769
11652.5
12444.1
4221.8
5784.22
6909.12
7698.8
8148.26
5471.1
7175.89
8346.83
9222.87
9794.16
3581.84
5017.63
6077.91
6803.26
7189.25
3965.9
5503.92
6621.9
7387.53
7800.5
3360.99
4742.73
5772.22
6471.68
6836.57
9062.85
10009.8
10553.2
11749.4
18388.2
5569.93
7153.96
8272.26
9252.51
10148.7
3847.6
5323.63
6405.51
7170.54
7608.89
3429.74
4787.48
5797.67
6511.22
6913.94
4234.51
5737.27
6829.82
7653.74
8199.69
3715.81
5116.25
6148.86
6905.3
7364.41
2935.47
4125.39
5021.38
5654.51
6006.37
2826.82
4010.7
4908.49
5530.32
5861.16
2718.02
3889.27
4783.59
5392.89
5706.16
2384.6
3427.79
4231.74
4781.26
5063.16
3191.41
4510.26
5499.88
6179.11
6538.63
2884.17
4097.21
5016.66
5649.58
5983.25
9314.52
9735.93
10017.2
11175.7
17941.2
6176.03
7389.05
8242.89
9229.49
10472.5
7220.3
8611.39
9419.31
10577.3
12867.6
4820.45
6273.19
7310.58
8201.85
8937.83
4110.62
5549.43
6597.57
7408.45
7956.27
5507.46
7035.42
8123.23
9123.72
10081.4
3018.71
4247.22
5171.92
5822.1
6180.49
2410.26
3453.24
4254.58
4805.13
5090.71
3315.61
4632.02
5614.64
6311.86
6706.41
8665.75
8201.98
7383.56
6209.2
4556.16
1794.24
19123
19459.2
22014.3
22736.3
18701.1
19796.6
21013.4
20315.4
15741
19573.3
16390
20119.8
18793.2
16927.5
26414.9
18358.8
18552
20747.1
21220.9
17667.7
18746.9
20062.2
19575.7
15659
23632
16218.1
23472.1
18960.6
20612.5
28329.7
17487.8
17550.3
19124
19346.9
16880.5
18369.4
18780
18800.9
17935.4
20848.2
18696.8
20836.9
20571.4
22681.9
25442.3
16650.3
16732.4
17628.4
17688.7
16388.9
18114
17459.3
17759.9
16755.3
18173.7
17486.8
17691.3
18744.9
20314.5
21904
15779.3
15895.8
16593
16567.2
16033.1
17907.7
16573.1
17059.6
15816.6
14933.9
16573.8
14318
17174.5
17027.2
18011.6
15382.1
15543.1
15899
15839.6
15607.3
17147.7
15997.3
16404.4
15061.9
12788.6
15619.6
12513.4
15933.1
14895.9
16253.1
21818.7
20956.7
22929.7
24113.4
20164.4
20105.3
21323.1
20320.4
19214.3
14253.7
19155.2
14320.4
17000.8
15389.9
18541.1
20544.2
19919.3
21150.8
21930.5
19430.8
19541.3
20080
19238.7
17750.2
13755.1
17721.7
13843.8
15530.7
13842.2
17107.3
18855.3
18483.2
19004.6
19386.2
18195.6
18320.9
18464.3
17951.3
16773.6
13401.3
16560.1
13139.3
14840.7
12613.4
16691.5
17220.7
17006.4
17318.8
17492.8
16813.9
16878.9
17123.7
16715.9
15699.3
13657.8
15584.9
13345.4
14124.7
12575.7
16819.9
16325.3
16181.7
16351.8
16436.4
15867.6
15929.1
16300
16037.2
15355.9
14539.4
15280.9
14386.2
14100.1
12976.8
17211
15682.4
15550.9
15777.1
15831.3
15300
15549.7
15705.1
15588.2
15176.6
15090.5
15162
15009.1
14115.5
13423.9
17794.5
11754.1
6670.72
19340.6
12705.3
21149.4
15640.1
33151.5
41146.3
43623.5
53420.6
28250.9
24526.1
17915.4
14238
8727.44
5810.64
19991.4
20373.6
17248.6
20225.1
27017.3
24030.2
31241.4
25195.5
8240.93
5915.34
4575.92
3416.95
10018.6
8161.16
6110.4
4966.15
18376.7
19020.1
18721.3
15709.6
14505
11401.3
11433.7
13002.9
18414.9
18345.3
38735.7
40061.2
27371.3
28219.4
15703.2
13243
17058.1
12152
7935.38
8161.11
6424.25
9113.5
3333.96
4056.65
8961.05
12406.1
5360.05
6285.58
9898.36
16802.9
6877.61
11326.2
2617.15
6721.1
2177.18
5008.59
17926.3
22167
18557.3
22110.3
21909.6
22098.4
22373.3
21852.6
15830.6
21480
16218.7
21192.5
18305.2
21979.2
18312.9
21939.2
22593.6
21595.3
22534.4
21401.1
14643.7
21581.8
14146.3
21665.4
17981.6
21209.4
22702.6
31822.6
19049
24541.3
22504.8
34626.8
17046.8
18645.3
22787
30562.5
16867.1
17436.1
23030.9
30317.4
5396.24
7119.09
13826.6
24378
6785.78
7740.72
18014
27899.8
8414.55
8508.8
22764.9
31015.5
24712.6
26384.9
21054.6
20482
29968
26522.7
25164.9
21465
18722.4
34330
24192.8
23987.4
21498.3
21559.1
39116.9
2063.73
2500.72
4437.82
10326.8
2987.4
3394.48
6242.63
11645.7
4432.5
3757.62
8447.01
13282.4
26173.4
25713.6
23700.5
23174.7
20468.1
18614.1
15570.4
13712.1
11077.2
15510.4
23875.1
22939.6
24169.1
23671.5
21125.5
19717
17598.7
15732.9
11789.8
15615.7
24000
26989.4
23949
27681.7
23110.2
23875.5
22579.7
24077.4
21927.1
22291.5
21742.9
21633.1
23768.5
27809.1
23667.8
27792.5
21930.6
24390.9
21757.5
24343.8
22011.8
22240.9
22010.5
22231.2
18530.1
17611.2
11972.1
13344
18409
17156.3
11796.7
13420.3
18782.9
17553.1
12229.7
13386.3
18858.5
17374
12609
13389.8
1677.43
1119.56
768.477
973.82
657.458
610.284
2377.21
1396.88
1047.09
1928.28
1534.93
1311.61
2731.67
2233.84
2224.33
3372.79
2732.59
2440.81
24371.6
21803.7
20036
22513.1
20690.8
19268.7
16206.2
14908.6
14192.6
11086.5
9503.83
8826.88
5148.02
3747.54
3152.88
22089.3
20247.2
18726.5
22782.6
20549.1
18851
16957.3
14399.5
12957.5
11115.3
8777.41
7820.06
5469.88
3724.73
2965.66
27337.9
26697.4
29818.6
26708.4
30702.9
26714.2
37123.9
28177.5
20968.4
21369
20689.3
19303.9
23698.3
22276.9
23293.4
19879.8
23095
22888.1
21264.1
22697.6
28238.4
25414.1
28162.9
28613.3
30632.5
31701.2
23440.6
24341.5
20983.5
20376.9
25486.5
26167.2
16546
8951.96
15486.2
9907.12
16772.1
9024.03
15437.3
9837.45
16554.8
9071.15
15405.5
10250.1
15000.6
10724
15191.8
10637.9
21306.5
18176.3
21226.1
18174.5
23553.8
21236.5
23833.7
21053.2
20767.8
15158.6
21621
14939.9
21724
18102.4
22011.7
17902.5
24476.4
20897
24506.9
20636.2
20593.9
15215.4
20548
15125.1
13622.2
9113.81
12004.5
7752.27
12675.6
8168.57
11525
7247.8
13970.8
9682.42
12205.9
7988.45
13996.6
10028.7
12178.1
8046.94
2587.99
1345.81
4768.33
2573.61
2777.01
1672.84
5097.06
3103.65
3416.73
2524.32
5643.85
4058.14
13154.2
20382.7
9491.64
9114.36
6526.15
19933.3
13871.8
8142.83
8192.06
5381.16
20767.6
16336.1
12986.3
10119.9
6362.07
714.657
531.417
1481.04
1102.45
1036.41
714.758
2108.64
1681.25
1795.18
1386
3053.94
2490.2
20190.5
19458.6
13669.9
13038.8
8886.68
8904.72
7487.93
6836.13
4605.16
3778.37
18967.8
17182.5
14688
12836.7
11431.1
10097.7
8706.49
7813.77
5617.37
5511.59
15078.3
12147.1
15183.7
11872.2
18152.3
15021.8
18129.6
14835.3
12700.3
10249.9
12314.3
10274.8
15196.1
11697.9
15105.6
11682.4
18069.2
15129.9
17900.6
15090
12934.4
10097.5
12914.1
10231.9
9901.02
8333.96
6614.26
6907.17
9536.88
8146.26
6312.27
6543.09
10323.6
8500.4
6783.46
7308.15
10567.6
8499.71
7047.39
7413.27
1687.11
1482.25
1226.94
7343.93
3920.02
3199.1
1670.06
1643.65
1459
8032.79
4694.9
3978.49
2303.28
2573.96
2634.54
8920.16
5901.88
5251.74
18188.1
16860.1
15924.3
12418
11936.7
11637.1
9041.05
8854.12
8807.51
7729.15
7420.31
7211.11
10198.4
7314.15
6597.18
15537.3
14179.7
13276.3
11542.7
10632.9
10118.2
9573.79
8798.58
8364.18
9169.01
8073.93
7442.72
12425.3
8262.41
7399.48
4956.83
3107.68
2163.46
1735.84
5574.84
3372.79
2281.18
1778.35
4981.55
3104.89
2168.38
1748.6
5697.56
3444.24
2329.41
1803.95
4969.42
3073.07
2177.72
1748.49
5813.24
3488.35
2386.28
1814.73
6256.93
3693.51
2432.55
1873.22
6444.13
3836.73
2506.33
1939.13
5298.24
3271.54
2266.81
1774.53
4338.21
2871.14
2080.02
1703.6
4650.26
2963.91
2117.53
1659.21
3994.94
2706.55
1997.45
1637.47
5733.85
3504.45
2371.23
1849.22
4544.42
2991.74
2132.57
1755.36
5980.35
3663.44
2447.02
1905.86
4635.86
3078.48
2177.96
1788.23
3741.68
2668.37
1973.21
1648.52
2428.5
2142.09
1740.57
1549.83
3753.82
2655.5
1970.29
1645.52
2539.4
2172.23
1750.81
1559.23
3845.88
2654.75
1982.98
1656.26
2868.98
2269.46
1789.99
1597.17
3801.71
2590.77
1948.93
1689.77
3153.34
2337.79
1841.18
1591.36
3536.62
2515.26
1904.43
1613.56
1111.94
1716.28
1387.91
420.707
-355.276
1479.06
1244.83
442.124
1349.49
1795.36
1419.18
443.748
-64.8795
1567.91
1272.67
451.761
1795.57
1934.64
1466.75
442.334
431.839
1715.49
1312.4
456.836
2343.74
2101.12
1538.41
480.131
964.974
1880.2
1370.48
476.42
2710.29
2254.51
1627.59
558.23
1119.31
2006.32
1424.7
493.588
2894.73
2424.85
1666.93
531.757
834.388
2143.4
1526.18
523.983
2822.01
2349.44
1637.09
531.905
790.949
2079.82
1474.69
505.982
2919.63
2478.41
1689.07
496.435
782.325
2197.94
1559.96
527.158
2981.31
2534.55
1733.47
506.881
885.189
2256.94
1601.2
539.972
1513.73
1116.94
747.276
425.285
137.708
1497.49
1114.63
747.796
425.838
137.897
1533.93
1126.83
751.933
427.392
138.314
1522.84
1127.27
754.033
428.732
138.742
1571.02
1140.21
757.717
429.952
139.046
1553.23
1141.53
761.044
432.005
139.702
1575.87
1157.72
770.294
436.592
141.079
1612.92
1180.93
783.428
443.116
143.041
1608.56
1156.25
766.036
433.941
140.232
1716.33
1175.72
771.495
435.931
140.769
1616.37
1152.09
762.03
431.726
139.54
1714.04
1168.67
767.063
433.685
140.083
1623.09
1170.45
774.308
438.073
141.479
1747.7
1189.5
779.022
439.662
141.897
1660.23
1193
786.667
444.162
143.31
1787.13
1209.62
789.723
444.922
143.484
1555.12
1122.64
747.268
424.832
137.538
1634.43
1129.05
747.451
424.568
137.436
1574.3
1130.48
750.743
426.364
137.972
1649.92
1134.99
750.107
425.745
137.772
1611.05
1142.9
755.965
428.657
138.621
1681.44
1145.19
754.618
427.758
138.342
1670.14
1157.08
761.244
430.906
139.252
1719.24
1156.12
759.746
430.085
138.996
1725.93
1164.38
764.238
432.246
139.638
10251.9
15827.7
10773
16150.4
11447.7
16471.9
11875.5
16635.5
11333.6
15914.4
10426.4
11759.1
10462.3
12370.6
10471.8
11635
10648.1
11765.9
9137.07
1557.19
332.522
74.6303
13.2247
10164.5
2893.21
702.656
159.52
28.2536
9218.05
1552.75
329.706
73.7377
13.0317
10242.6
2880.74
697.346
157.599
27.6786
9269.68
1539.79
324.321
72.2422
12.743
10273.5
2860.03
688.878
155.154
27.2134
9142.39
1486.48
310.398
68.9873
12.1633
10109.4
2789.3
669.617
150.603
26.3926
8626.51
1367.22
284.955
63.542
11.2307
9533.18
2635.67
634.937
143.238
25.1428
7612.86
1254.52
270.036
61.2155
10.9052
7795.1
2262.42
559.718
128.407
22.7617
7914.37
1283.41
272.999
61.4943
10.9184
8299.5
2404.46
589.551
134.158
23.652
7491.06
1246.26
269.48
61.2336