/*--------------------------------*- C++ -*----------------------------------*\
  =========                 |
  \\      /  F ield         | OpenFOAM: The Open Source CFD Toolbox
   \\    /   O peration     | Website:  https://openfoam.org
    \\  /    A nd           | Version:  11
     \\/     M anipulation  |
\*---------------------------------------------------------------------------*/
FoamFile
{
    format      ascii;
    class       volScalarField;
    location    "2.1";
    object      gradTy;
}
// * * * * * * * * * * * * * * * * * * * * * * * * * * * * * * * * * * * * * //

dimensions      [0 -1 0 1 0 0 0];

internalField   nonuniform List<scalar> 
5712
(
11734.3
6766.77
19022.2
12471.7
20757.3
15368.9
32581.3
40394.1
42835.8
52428.6
27705.3
24076.8
17598.3
13950.7
8834.63
5976.4
19690.7
20127.2
16966.2
19922.9
26600.9
23734.9
30702.8
24831.3
8282.95
5963.6
4654.93
3459.5
9910.79
8070.14
6013.86
4860.95
18013.7
18697.7
18399.5
15527.5
14330.8
11201
11243.2
12769
18117.7
18030.2
38011.8
39294.8
26929.7
27739.4
15366.8
12958.9
16739.8
11935
7786.82
7993.48
6373.73
8894.59
3334.18
4011.98
8739.01
11938.8
5202.42
6063.7
9686.85
16226.2
6711.17
10974
2560.59
6527.12
2129.7
4871.26
17746.4
21918.5
18309.2
21825.4
21712
21925.4
22109.7
21642.3
15578.2
21105
16015.5
20846.9
18032.4
21674
18024.1
21621.9
22290.5
21363.1
22212.6
21157.9
14391.6
21192.1
13891.9
21266.4
17556.3
20586
22169.8
30903
18588.8
23745.6
21966.9
33531.1
16648.8
18132.6
22260.6
29726.7
16473.5
16972.6
22501.3
29509
5229.52
6830.99
13329.4
23217.1
6497.59
7381.62
17193.5
26453.9
8110.44
8190.26
21839.1
29610.1
24422.6
26229.7
20663.6
19962.9
28875.3
26413.5
24944.7
21091.4
18297.3
32962.4
24068.6
23761
21173.2
21041
37734.9
2027.49
2432.1
4331.4
9826.11
2881.9
3256.77
6000.4
11047.6
4308.26
3646.69
8182.04
12719.8
26172.6
25899.5
23605.8
23262.6
20222.6
18561.9
15315.1
13565.3
10787.2
14958.4
23820.8
23039.2
24006.6
23652.1
20864.9
19579.5
17260.5
15483.8
11508.9
15131.1
23766.6
26772.5
23692.9
27422.4
22978.4
23810.2
22423.2
23964.2
21603.1
21981.9
21428.7
21347.6
23503.4
27534.1
23392.2
27504.2
21762.8
24251.6
21579.2
24190.9
21685.9
21932.3
21677.5
21916.9
18176.5
17282.4
11716.4
13022
18047.9
16822.3
11535.1
13055.5
18432.5
17234.9
11973.7
13083
18507.2
17061.6
12347
13094.7
1657.73
1128.99
787.591
965.592
669.433
625.443
2302.83
1388.64
1056.67
1908.22
1541.47
1334.31
2687.64
2254.92
2269.62
3360.11
2760.74
2485.64
24811.1
22471.1
20821.5
22825.8
21218.6
19916.4
16376.3
15243.4
14622.9
11113.1
9674.28
9066.39
5119.34
3795.67
3224.3
22425.7
20825.3
19442.4
23008.8
21030.1
19475.4
17037.2
14689.8
13354.2
11110.9
8929.19
8039.87
5447.21
3779.88
3041.21
27004.3
26446
29398.1
26400.3
30251
26407
36504.1
27795.2
20948.6
21297.4
20682
19213.3
23503.1
22164.5
23069.3
19732.2
22836.8
22683.8
21048.9
22531
28082.8
25198.9
27796
28215.3
30170.1
31195.4
23154.1
24022.2
20741
20129.8
25230.6
25878
16458.6
8845.42
15375.9
9796.4
16699.2
8925.35
15328.9
9733.54
16481
8974.63
15293.2
10146.4
14870
10616.5
15047
10529.8
21177.1
18135.8
21042.6
18100.4
23364.2
21122.9
23583.6
20903.6
20623
15136.4
21528.2
14946.9
21498.7
18008.2
21764.8
17802.3
24179.3
20725.1
24190.2
20456.4
20413.3
15176.7
20349.9
15082.3
13542
9012.48
11995.3
7646.49
12629.5
8073.98
11534.5
7142.73
13869.3
9578.55
12185.2
7880.29
13885
9927.33
12153.2
7936.79
2570.34
1333.82
4677.48
2452.42
2749.24
1650.86
4989.81
2967.42
3397.86
2518.26
5540.61
3938.21
13187.9
20374.1
9508.33
9122.27
6434.99
19973.9
13952
8196.05
8239.14
5285.59
20746
16375.7
13046.8
10159.8
6256.35
705.585
537.488
1349.39
971.263
1022.13
709.805
1970.26
1559.77
1805.05
1422.63
2934.96
2386.37
20318.1
19750
13827.3
13336
9018.56
9170.63
7596.8
7059.9
4512.47
3709.4
19038.1
17394.1
14815
13098
11573.5
10376.7
8808.63
8048.99
5530.82
5545.87
15155.6
12367.7
15231.3
12049.6
18152.1
15146.9
18090.9
14905.7
12802.7
10490.5
12433.7
10547.2
15224
11849.5
15127.3
11827.6
18010
15171.7
17832.7
15121.6
13025.6
10316.2
13002.5
10453.1
9988.57
8556.06
6548.51
7004.82
9634.19
8384.57
6243.66
6648.11
10411
8719.92
6715.28
7421.8
10661.6
8720.53
6982.86
7530.07
1870.01
1651.36
1370.39
8132.16
4353.61
3563.58
1812.72
1795.84
1598.49
8804.96
5145.39
4368.93
2482.36
2795.95
2873.48
9707.77
6437.78
5746.35
18696.3
17549.2
16702.1
12895.8
12564.5
12339.8
9484.17
9416.85
9431.08
8212.52
7978.51
7799.43
11031.2
7948.86
7199.82
15930.1
14752.4
13943.4
11973.4
11205.7
10760
10051.3
9382.23
8989.88
9758.16
8700.27
8073.37
13404.9
8969.01
8077
4859.85
3073.35
2216.49
1902.84
5492.36
3351.32
2343.31
1948.51
4882.11
3067.59
2220.6
1917.08
5613.35
3420.71
2388.93
1970.32
4862
3028.49
2219.48
1905.63
5725.28
3461.53
2436.52
1966.16
6173.65
3673.94
2497.61
2049.5
6363.06
3821.1
2581.35
2129.93
5190.46
3227.91
2306.67
1927.76
4181.38
2796.81
2100.55
1852.57
4525.32
2906.63
2143.36
1790.62
3828.94
2627.1
2012.86
1776.4
5635.91
3470.49
2422.99
2018.1
4391.58
2920.93
2156.82
1912.98
5887.24
3635.18
2505.36
2082.34
4482.58
3009.52
2203.34
1946.94
3617.23
2612.79
2007.47
1802.74
2249.21
2057.36
1751.66
1694.01
3623.34
2596.77
2002.7
1797.8
2355.96
2086.19
1762.09
1703.41
3708.34
2590.52
2009.25
1804.65
2689.07
2183.98
1800.87
1745.8
3648.38
2515.78
1965.81
1838.18
2973.52
2250.42
1849.06
1733.41
3356.25
2429.17
1913.01
1749.02
841.018
1603.14
1376.75
414.859
-766.691
1347.79
1221.63
442.301
1088.03
1684.34
1408.78
438.384
-454.69
1438.76
1249.62
451.919
1550.66
1827.85
1458.44
437.007
72.7906
1591.96
1291.23
457.331
2114.4
1997.44
1528.94
475.135
630.178
1760.76
1350.26
477.284
2480.5
2150.98
1616.03
555.841
767.012
1886.51
1404.88
494.657
2645.81
2317.09
1655.86
527.245
417.572
2014.7
1505.36
524.979
2580.95
2243.47
1625.52
527.792
384.043
1955
1454.77
507.003
2662.49
2369.36
1681.83
490.564
349.932
2066.54
1540.13
528.311
2720.65
2425.22
1728.64
501.771
454.138
2124.97
1582.48
541.711
1759.12
1343.55
925.4
538.133
176.272
1739.34
1340.82
926.099
538.853
176.52
1780.78
1354.31
930.651
540.573
176.983
1765.88
1354.58
933.135
542.199
177.507
1822.04
1369.69
937.481
543.665
177.879
1798.88
1371.05
941.448
546.166
178.687
1826.42
1389.92
952.458
551.739
180.382
1869.48
1417.18
968.192
559.704
182.805
1864.27
1388.21
947.344
548.501
179.335
1990.72
1410.99
953.814
550.911
179.995
1873.22
1383.45
942.577
545.808
178.483
1988.03
1402.79
948.54
548.182
179.151
1881.54
1404.82
957.213
553.531
180.873
2026.91
1427.11
962.799
555.453
181.386
1923.89
1431.25
972.016
560.963
183.135
2071.91
1450.68
975.618
561.876
183.348
1808.36
1350.35
925.353
537.557
176.055
1902.21
1357.93
925.552
537.221
175.924
1828.7
1358.83
929.26
539.325
176.562
1918.33
1364.31
928.533
538.578
176.315
1870.1
1373.06
935.417
542.097
177.357
1953.83
1375.94
933.84
541.012
177.015
1937.87
1389.44
941.661
544.821
178.132
1996.38
1388.44
939.906
543.835
177.821
2002.27
1397.89
945.206
546.445
178.606
9691.2
14890.9
10165.6
15183.1
10864.6
15562.7
11343.8
15802.8
10894.9
15200
10117.3
11393.6
10119.7
11926.2
10179.9
11304.7
10359.9
11446.5
8577.27
1467.69
313.292
70.1981
12.4204
9537.25
2713.27
658.246
149.203
26.3899
8667.29
1456.33
308.595
68.8797
12.154
9622.9
2702.2
653.013
147.308
25.8306
8752.76
1450.43
304.715
67.7137
11.9225
9693.05
2692.31
647.053
145.414
25.4597
8680.34
1407.54
293.03
64.9476
11.4275
9586.64
2637.68
631.562
141.684
24.7798
8240.41
1302.48
270.564
60.1472
10.6063
9087.37
2504.67
601.628
135.345
23.7057
7347.72
1207.55
259.008
58.5151
10.3973
7520.12
2174.03
536.005
122.568
21.6716
7606.61
1230.06
260.726
58.5337
10.3669
7964.99
2298.4
561.685
127.423
22.4111
7248.71
1202.79
259.19
58.6965
10.4396
7372.52
2118.88
522.873
119.942
21.2669
7222.71
1193.64
257.02
58.2291
10.3477
7382.06
2106.39
518.448
119.205
21.102
33554
47549.3
46470.1
32566.9
19200.7
20202.1
28312.5
29567.6
22151.3
24817.1
35206.6
48009.3
44498.1
58925.3
29069.7
33123
22820.9
24373.7
12392
13584.6
4917.36
3252.43
862.613
664.821
747.904
655.847
798.672
4811.93
4755.88
2871.46
4035.23
3871.93
1680.36
2320.07
2107.71
1390.85
1602.52
1314.67
4336.73
2355.2
1507.82
1334.8
1695.47
1470.62
1153.42
1091.59
1026.27
901.803
1224.09
1105.22
4535.87
2755.47
3161.04
2014.95
1661.26
2335.01
1177.33
925.745
1294.04
9995.48
10089.4
10301.3
11573.6
19016.8
7204.26
8271.04
9059.38
10185.1
11865.7
2268.52
3241.12
3982.76
4489.73
4752.46
1761.89
2544.8
3153.03
3568.98
3781.21
1979.39
2851.88
3523.18
3977.1
4206.44
1739.79
2515.86
3118.87
3529.74
3738.15
2108.57
3027.9
3732.11
4209.4
4452.25
10114.8
10421.8
10300.7
10936.6
17067.4
9969.42
10093.6
9798.34
10037
11445.7
6599.03
7825.66
8457.21
9048.61
9765.18
8723.29
9163.61
8940.4
8881.26
9106.26
8364.39
8862.93
8617.15
8411.75
8417.01
4188.93
5540.73
6398.76
6947.79
7254.16
5515.21
6827.38
7520.41
7973.09
8295.29
5075.56
6382.13
7066.82
7443.25
7641.89
3544.66
4832.64
5701.76
6252.29
6533.53
4012.19
5331.55
6159.12
6658.4
6909.73
3371
4633.14
5495.08
6036.35
6304.94
9294.93
9908.24
10086.5
10985
17355.7
5600.73
6987.67
7855.77
8613.05
9373.65
3815.91
5159.46
6069.81
6678.72
7024.13
3416.8
4698.4
5606.31
6225.31
6571.54
4226.35
5611.57
6549.83
7233.52
7695.58
3733.37
5083.06
6041.84
6729.3
7147.62
2985.56
4175.31
5057.36
5673.61
6014.89
2840.92
3997.77
4852.53
5432.08
5737.16
2682.99
3794.63
4611.72
5148.65
5417.86
2371.11
3383.07
4144.47
4653.22
4910.13
3159.41
4388.31
5260.16
5830.85
6125.43
2873.63
4035.85
4885.39
5452.55
5746.66
9455.14
9833.66
10094.7
11259.4
18252.8
6305.51
7549.51
8433.75
9463.28
10766.3
7342.25
8612.88
9276.12
10313.4
12539.8
4911.52
6363.85
7386.19
8265.68
9002.06
4160.7
5572.3
6573.14
7339.66
7862.89
5562.14
6978.22
7914.66
8780.35
9660.38
3045.38
4252.33
5139.1
5751.47
6086.87
2429.08
3457.36
4231.36
4753.59
5021.52
3322.06
4589.35
5501.56
6132.5
6487.4
18441.6
12247.2
18998.2
13569.5
24625
35178.8
25736.9
35006.4
19531.8
20661.1
16761.7
19964.8
22188.1
21093.2
28254.9
23156.9
14216.5
13287.2
6965.58
5943.38
15493.9
14158.5
8000.71
6528.34
19159.7
20706.6
19639.4
17918
20017.2
13186.6
11044.2
12732.8
18029.3
17999.4
37469
39178.4
26192.6
27538.9
15956.2
13084.2
17421.6
12055.1
8445.26
8152.12
13969.4
15455.3
5845.06
6373.74
15373.6
17535.7
7291.2
8048.29
14666.5
20489.3
8517.13
13128.4
2978.23
7266.94
2213.08
5015.31
18188.2
20790.7
18129.4
21165.6
19838.4
20117.8
20906
20630
16552.5
20942
18777.2
20646.8
17831.2
21319.9
17945.5
21507
21670.3
20845.5
22029.9
20997.6
14673.4
21077.8
13934.4
21221.7
18447
21825.3
22397.7
31220
20094.3
25836.8
22467.2
34212.9
17050.4
18725.8
22341.1
29860
16575.6
17136.4
22514.1
29542.4
19155.3
20692.8
24019.4
35619
19274.8
19724.8
25710.5
36088.6
18997.3
18665
27673.9
35813
18391.4
19262.9
19662.3
20933.5
31480
18512.9
17303.8
20989.3
19137.1
35979.9
19315.2
20154
20004.4
21701.8
38915.6
11484.6
10508.2
10650
13773.1
12570.9
11519.5
11036.2
14156.5
13834.7
11998.8
11546.6
14473.9
17947.4
17255.9
16851.2
16392.2
19467.5
18203.1
16086.7
14483.9
12095.4
15104.9
18971.5
18752.9
20108.1
20239.3
19304.6
18168.8
17525.2
15564.4
11914.2
14610.2
21889.1
24635.4
22742.4
26272.4
20685
21587.8
21319.1
22866.5
21084.3
21310.1
20543.5
20273
23038
26975.7
23250.6
27337.6
21246.1
23719.1
21425.9
24035.3
21403.9
21586.7
21588.1
21813.3
18041.5
17012.4
11749.8
12929.4
17957.3
16520.7
11714.8
12970.4
18330.8
17073.3
11965.6
13018.3
18469.6
17009
12338.9
13070.2
9620.81
9766.32
4140.61
3813.04
10731.5
10381.8
4639.26
4438.97
10457
9795.45
5281.98
5097.74
16997.1
16480.2
16596.6
16659.6
16563.1
16051.2
12468.5
11154.3
6229.92
5141.08
19050
18268.3
20371.5
19567.7
16191
15002.7
11645.7
9999.59
5729.63
4306.24
22126.5
21036.8
27136.4
23704.4
24626.5
21949.5
33731.5
25440.6
20243.4
16711.3
22052.5
17532
20122.9
16993.1
22146.9
17759.5
20686.3
18337.1
18715.8
17407.8
21255.4
22530.5
26439.7
27802.7
29025.7
30863.3
21805.8
23546
19694.6
19830.9
23705.7
25364.6
13641.8
10076.4
14076.9
10304.5
13922.3
9986.96
14264.2
10154
13840.2
9837.84
14210.5
10347.7
14244.6
10656.1
14843.8
10535.9
17309.3
16819.1
19116.1
17287.3
19825.4
19005.7
21701
19725.5
18814.4
14834.9
17885.9
14659.7
20542.4
17575.8
21480.5
17671.2
23261.7
20131.1
23924.1
20276.9
19517.9
14987.1
20089.1
15023.3
13139
9431.81
12203.3
8028.29
12581.8
9147.69
12142.8
7950.55
13555
9733.98
12250.7
8058.61
13774.1
9964.39
12169.9
7994.82
13148.2
13341.3
9461.88
8720.07
13289.6
13454.2
9315.27
8647.08
13247.6
12925.3
9081.28
8546.58
15338.2
18066.9
16161.4
12046
8823.62
16766.4
15715.7
17595
12096.5
8525.95
18485.2
16414.1
14596.2
12266.4
7880.57
13953.7
15156.7
8677.86
9383.58
13805.9
14746
8598.07
9251.4
12883.3
13404.2
8221.46
8378.06
16595.3
15743.6
15029.1
14489.1
15644.5
16113.1
12235.1
13062.6
7977.99
7822.79
16805.4
15427.1
15178.4
13901.8
13692.2
13137.5
11608.3
11657.2
7356.66
7891.11
14859.2
12753.9
14928.3
12177.7
16774.7
14266.3
17299.9
14446
12971.3
11059.3
13059.7
11837.5
15031.9
11903.5
15067.4
11841.9
17613.5
14945.2
17714.4
15056.9
13045.8
10562.5
12995
10515.3
10492.2
9357.5
7042.29
7745.43
10781.9
10056
7218.84
8134.24
10612.1
9077.3
6944.96
7818.2
10718.7
8824.93
7060.89
7654.85
18088.9
18042.3
24765.1
20849
17350.2
17429.3
23742.8
19927.2
15226.5
15875.3
21787.9
18522.9
15272.5
14763.3
14095.9
13913.9
16337.9
16795.7
15140.7
15120.9
19990.2
16958.8
14437.4
13753.8
13279.1
13117.3
13578.4
13929.3
14573.5
14251.9
19533.6
15582.6
6352.62
4068.21
2818
2318.09
6600.67
4205.09
2899.45
2337.82
6234.19
3991.62
2769.71
2295.22
6538.99
4159.5
2869.07
2308.12
6017.7
3840.92
2698.61
2234.52
6443.94
4056.18
2837.49
2250.08
6593.43
4047.87
2769.77
2251.6
6503.55
3951.09
2673.22
2200.24
5795.63
3696.72
2634.89
2178.08
4587.34
3130.8
2331.64
2040.65
5476.35
3572.65
2568.22
2094.78
4491.69
3141.12
2319.78
1999.9
5970.45
3750.47
2629.5
2179.07
4610.9
3109.38
2302.16
2041.29
5990.93
3728.96
2576.43
2138.72
4551.71
3070.9
2253.06
1991.05
5833.66
3808.35
2667.21
2246.18
4966.28
3424.05
2468.42
2165.76
5676.76
3728.76
2620.71
2211.07
4858.21
3379.07
2443.51
2154.52
5456.22
3599.71
2563.17
2178.61
4778.49
3320.54
2413.17
2151.88
4990.5
3363.15
2439.94
2164.9
4599.87
3222.52
2366.65
2061.4
4338.01
3124.42
2293.14
1998.72
3682.39
3031.35
2042.28
572.695
1689.2
2778.89
1898.82
635.462
3720.91
3029.96
2042.33
592.793
1857.02
2782.71
1895.96
637.807
3789.98
3009.94
2019.33
565.015
2089.89
2770.58
1871.11
622.963
3751.45
2957.4
2022.7
594.788
2118.66
2724.76
1850.67
622.586
3479.33
2850.05
2015.7
673.39
1595.97
2612.9
1813.35
618.447
2950.37
2612.85
1898.61
616.482
565.459
2328.81
1722.95
600.044
3140.19
2714.32
1953.51
633.895
753.239
2451.3
1762.44
605.396
2813.77
2531.45
1829.62
547.485
400.952
2237.35
1667.95
574.371
2764.16
2476.86
1777.53
521.09
462.998
2178.37
1623.88
556.909
2076.77
1534.46
1031.8
590.974
192.18
2029.56
1522.02
1028.31
589.807
191.876
2075.61
1528.53
1027.63
588.726
191.48
2022.07
1512.87
1022.32
586.661
190.908
2091.2
1523.53
1022.71
585.943
190.605
2015.12
1502.3
1015.24
582.942
189.771
1975.2
1481.03
1003.88
577.414
188.126
1924.2
1451.54
987.689
569.461
185.752
2062.8
1506.93
1013.32
581.279
189.207
2179.81
1516.76
1011.82
579.637
188.642
2125.58
1524.43
1020.07
584.183
190.031
2231.85
1529.83
1017.69
582.355
189.43
2012.75
1486.31
1002.83
576.247
187.72
2149.45
1498.82
1002.41
575.124
187.313
1969.34
1459.49
987.904
568.899
185.533
2114.02
1475.66
989.474
568.78
185.438
2168.65
1552.64
1035.97
592.191
192.479
2319.9
1569.01
1038.87
592.959
192.663
2173.1
1548.96
1033.03
590.567
191.966
2321.34
1565.74
1036.55
591.705
192.271
2190.92
1544.02
1028.39
587.988
191.154
2328.43
1559.36
1032.11
589.36
191.539
2239.02
1542.18
1024.22
585.541
190.373
2339.07
1549.96
1026.61
586.535
190.652
2290.09
1538.67
1021.35
584.015
189.901
11653.7
15348.7
11715.6
15358
11848.9
15359.7
11654.9
15173.1
10893.5
14426.6
10098.4
11305.6
10130.1
11759.9
10159.9
11254.6
10351.8
11430.2
8980.58
1495.65
314.658
69.982
12.3337
9669.23
2737.33
659.74
148.734
26.2129
8943.45
1471.22
308.347
68.4465
12.0422
9627.77
2703.64
651.01
146.331
25.5941
8829.78
1445.07
301.964
66.9406
11.7706
9518.14
2661.5
640.049
143.713
25.136
8580.53
1385.76
288.357
63.9264
11.2482
9277.33
2582.06
620.647
139.417
24.3899
8092.09
1278.11
265.749
59.1344
10.4331
8776.89
2445.79
589.951
132.967
23.3073
7295.11
1197.34
256.567
57.938
10.2933
7449.61
2150.54
529.895
121.147
21.4201
7522.17
1213.64
257.031
57.7053
10.2219
7831.36
2258.69
552.358
125.393
22.0646
7218.91
1197.11
257.804
58.3592
10.3777
7335.63
2106.56
519.524
119.132
21.1195
7212.98
1191.8
256.569
58.1182
10.3271
7370.3
2102.58
517.396
118.945
21.054
33103.6
47253.7
45430.2
31209.4
24378.1
29054.5
23563.8
28940.8
27305.4
43346.4
28951.7
44387
204.066
220.476
256.994
316.274
402.881
522.304
217.865
234.768
272.239
332.502
418.763
534.9
193.689
188.582
211.069
207.679
249.879
250.507
313.394
321.897
405.128
423.956
525.427
547.009
681.215
887.016
1158.01
1521.97
1944.21
2248.33
684.903
871.77
1097.55
1353.41
1599.7
1759.8
546.328
801.334
1006.67
1150.38
1224.33
590.017
864.88
1085.87
1240.33
1319.73
687.263
1006.32
1262.11
1440.47
1532.02
844.85
1234.93
1546.29
1762.68
1873.54
1074.32
1566.16
1956.29
2226.24
2364.28
1388.87
2016.27
2509.47
2849.1
3022.64
583.091
854.889
1073.55
1226.46
1305.09
628.03
920.103
1154.64
1318.4
1402.53
727.654
1064.65
1334.36
1522.19
1618.54
887.544
1295.94
1621.19
1846.94
1962.56
1115.58
1624.03
2026.29
2304.4
2446.68
1420.75
2059.32
2560.11
2905.07
3081.71
518.601
760.832
956.031
1092.72
1163.08
504.932
740.837
931.014
1064.23
1132.8
564.932
828.343
1040.3
1188.54
1264.76
555.87
815.12
1023.81
1169.79
1244.85
668.377
979.014
1228.29
1402.21
1491.51
670.062
981.537
1231.54
1405.99
1495.55
837.388
1224.56
1533.92
1749.01
1859.22
860.073
1257.68
1575.34
1796.13
1909.21
1080.71
1576.32
1969.8
2242.07
2381.2
1130.78
1648.99
2060.05
2344.16
2489.2
1398.04
2031.29
2529.5
2872.17
3046.87
1455.44
2114.41
2632.19
2987.55
3168.28
1802.95
2599.75
3218.17
3642.56
3860.41
2329.2
3322.09
4079.9
4601.84
4875.28
3000.12
4202.95
5101.72
5734.66
6086.18
3854.16
5244.17
6258.86
7021
7506
4769.08
6235.98
7288.47
8175.71
8870.45
5399.88
6876.69
7931.48
8904.87
9769.78
1811.13
2608.6
3227.03
3652.27
3871.33
2290.24
3268.91
4017.53
4534.1
4804.72
2856.38
4025.67
4906.17
5522.18
5856.86
3478.17
4821.93
5817.84
6535.47
6951.04
4054.47
5522.29
6596.65
7403.75
7910.59
4420.91
5955.01
7072.19
7938.21
8512.05
206.69
228.462
270.9
336.968
431.5
560.098
220.569
242.989
286.419
353.255
446.673
570.115
196.324
191.304
219.165
216.095
264.123
265.456
334.943
344.885
435.39
456.101
567.031
592.488
727.824
938.513
1207.43
1559.26
1964.1
2253.98
726.245
915.983
1139.46
1386.94
1620.56
1766.75
553.367
811.725
1019.84
1165.55
1240.53
611.529
896.749
1126.32
1286.94
1369.57
724.762
1061.98
1332.9
1522.18
1619.48
900.768
1318.21
1652.6
1885.75
2005.48
1151.93
1682.42
2105.55
2399.84
2550.86
1491.94
2172.05
2711.18
3085.3
3277.47
590.362
865.654
1087.22
1242.22
1321.94
650.198
953.005
1196.48
1366.69
1454.21
765.936
1121.58
1406.91
1606.08
1708.41
943.688
1379.72
1728.36
1971.21
2095.9
1191.33
1737.69
2172.45
2474.61
2629.75
1516.8
2204.55
2748.29
3125.55
3319.65
525.676
771.277
969.257
1107.94
1179.33
512.242
751.625
944.665
1079.92
1149.55
586.721
860.581
1081.17
1235.59
1315.05
578.51
848.598
1066.22
1218.6
1297.01
706.756
1035.92
1300.58
1485.58
1580.7
710.334
1041.23
1307.36
1493.41
1589.06
895.588
1311.18
1644.39
1876.83
1996.19
922.177
1350.15
1693.33
1932.71
2055.6
1162.79
1699.33
2127.77
2425.83
2578.73
1218.12
1780.22
2229.03
2541.16
2701.18
1511.6
2203.14
2752.28
3133.27
3328.67
1579.84
2303.28
2877.85
3276.21
3480.29
1931.22
2796.31
3476.08
3947.68
4191.45
2473.09
3547.44
4381.45
4963.98
5271.53
3142.13
4433.71
5420.11
6125.88
6520.08
3967.64
5440.67
6542.57
7381.66
7915.23
4836.56
6363.55
7481.46
8430.11
9168.11
5421.35
6920.22
7999.37
8996.56
9879.32
1924.72
2782.26
3454.45
3920.97
4162.68
2413.03
3459.63
4270.96
4836.95
5135.21
2974.7
4213.64
5160.91
5831.23
6197.13
3575.15
4980.74
6038.34
6808
7254.68
4116.69
5627.59
6746.24
7592.03
8123.09
4442.11
5991.69
7125.04
8005.49
8588.61
4899.74
3251.74
924.615
717.571
820.838
714.905
867.333
4503.72
4336.2
2827.15
3574.22
1752.48
2314.49
1478.21
1637.98
1385.93
4199.86
2383.25
1592.34
1418.73
1766.57
1540.97
1216.1
1169.74
1125.25
992.172
1317.57
1192.97
4484.45
2762.3
3134.57
2047.99
1715.97
2363.45
1249.27
1002.5
1371.9
9994.96
10144.5
10406.3
11744.1
19328.4
7219.38
8320.58
9146.87
10314.1
12034.3
2442.34
3514.7
4350.41
4932.38
5237.3
1907.18
2767.79
3446.1
3916.05
4157.89
2181.56
3165.18
3938.67
4472.63
4746.36
1902.5
2765.66
3447.26
3918.74
4160.41
2300.16
3327.49
4132.33
4689.03
4976.08
9945.06
11100.3
11778.8
13174.9
20571.5
9785.98
11153.3
12031
13295
15507.4
6746.44
8529.87
9802.69
10973.9
12081.1
8559.24
10354
11346.7
12377.3
13282.6
4484.95
6186.03
7437.77
8330.9
8842.35
5734.27
7584.45
8894.44
9892.39
10544
3844.89
5415.24
6594.82
7413.19
7851.92
4232.88
5909.23
7151.45
8015.51
8485.2
3623.66
5138.32
6284.3
7073.13
7487.75
9227.75
10312.2
11006.3
12407.5
19696.7
5798.52
7519.86
8778.96
9898.47
10911
4103.71
5714.15
6918.57
7783.19
8281.36
3678.83
5165.85
6292.56
7099.44
7557.29
4479.27
6115.75
7335.19
8269.25
8888.7
3955.69
5484.65
6636.94
7493.79
8015.68
3168.42
4478.3
5481.54
6199.58
6600.72
3068.71
4374.86
5379.74
6083.92
6460.9
2969.62
4265.54
5266.7
5955.83
6312.43
2626.02
3787.81
4692.48
5316.49
5638.46
3447.71
4896.35
5999.81
6766.71
7175.4
3132.48
4470.4
5498.59
6214.55
6594.39
9455.65
10007.6
10430
11792.3
19221.2
6362.82
7701.17
8691.28
9830.68
11229.6
7401.86
8926.3
9881.5
11220.3
13762.6
5034.55
6614.77
7782.25
8799.61
9633.31
4339.91
5906.63
7078.6
7999.51
8621.74
5722.28
7383.37
8610.87
9754.53
10835.8
3257.69
4608.96
5643.09
6379.55
6787.77
2647.39
3807.67
4709.41
5334.97
5661.35
3559.37
5002.5
6099.51
6888.56
7337.4
9379.62
8851.39
7925.6
6620.19
4824.69
1892.02
18763.7
19106.9
21671.4
22360.9
18391.6
19501.6
20719.5
20070.8
15404.8
19004.8
16060.5
19561.5
18426
16613.1
25758.9
18042.6
18246.5
20457.1
20905.6
17409.1
18501.8
19812.1
19364.9
15338.8
22945
15908.2
22824.9
18600.4
20190.4
27632
17233.3
17309.4
18911.5
19116.4
16677.9
18167.8
18597.4
18644.3
17587.6
20299.9
18347.7
20309.8
20195.2
22215.7
24876.1
16466.9
16562.1
17511.9
17558.9
16245.8
17970.5
17368.2
17688.2
16480.7
17750.6
17213.5
17303.7
18463.8
19976.5
21501.5
15664.1
15792.8
16558.7
16521.9
15944.2
17821.8
16561.2
17065.6
15603.2
14653.6
16362.7
14075.1
16979.6
16841.4
17767.8
15308.9
15480.5
15926.7
15857.5
15562.2
17117.6
16043.2
16468.9
14897.5
12603.6
15464.4
12354.5
15802.5
14811.8
16094.9
21579.9
20749.5
22628.1
23769.4
20001.5
19980.3
21082.5
20131.2
19071
14184.8
19028.4
14260.1
16906.6
15338.2
18482.6
20366.8
19767.8
20917.2
21665.4
19316.4
19459.7
19892.9
19096.2
17686.7
13743.2
17672.4
13837.9
15509
13840.2
17123.8
18774.3
18422
18866.7
19227.6
18164.4
18322
18357.8
17880.3
16803.1
13480.6
16604.4
13220.6
14903.7
12673
16817.5
17269.1
17070.4
17292.3
17451.7
16903.3
17002.4
17118.6
16743.2
15861.1
13890.1
15758.4
13572.9
14307.2
12735.4
17118.3
16487.1
16357
16418.3
16491.1
16060.8
16155
16382.8
16148.5
15642.1
14931.5
15576.6
14781.5
14393.8
13234.3
17671.8
15927.9
15807.6
15913.3
15957.2
15565.5
15841.9
15855
15759.7
15542.9
15586.4
15537.2
15503.8
14483.6
13752.4
18360.9
11543.5
6550.47
19014.8
12478.9
20778.7
15356.3
32609.4
40407.9
42886.6
52453.9
27755.1
24077.3
17606
13976.9
8569.88
5703.73
19693.8
20129.6
16964.8
19923.9
26614.1
23740.6
30711.2
24835.7
8113.08
5844.86
4498.19
3355.3
9883.13
8060.37
6012.29
4874.54
18008.9
18693
18398
15527.9
14326.5
11204
11244.1
12770.4
18119.3
18031.9
38018.8
39299.6
26933.1
27741.8
15367.7
12960.5
16741.3
11936.3
7787.97
7994.59
6259.95
8754.47
3245.14
3913.5
8740.78
11951.1
5216.78
6080.47
9688.04
16232.4
6717.36
10981.8
2561.97
6530.16
2130.18
4872.43
17747.4
21919.6
18310.6
21826.5
21714.8
21926.9
22112.1
21643.5
15580.1
21106.2
16015.7
20847.9
18033.6
21674.9
18025.1
21622.8
22292.3
21364
22213.7
21158.5
14392.9
21193.4
13893
21267.6
17558.2
20589.7
22171.6
30905.6
18590.3
23749.6
21968.6
33534.1
16650.6
18135.4
22262.2
29729
16475.2
16974.9
22503
29511.3
5145.81
6748.8
13152.4
23024.6
6503.16
7385.45
17209.1
26472.9
8112.95
8192.36
21846.1
29617.4
24422.6
26230.5
20663.3
19964.1
28879.4
26414
24944.6
21090.5
18297.9
32966.8
24069.6
23761.6
21173.8
21042.6
37738.4
1986.43
2400.5
4243.21
9732.2
2886.35
3261.14
6012.14
11057.6
4310.29
3647.87
8185.87
12722.1
26172.8
25899.5
23605.6
23262.5
20222
18561.6
15315.9
13566
10789.2
14959.7
23821.2
23039.3
24006.8
23652.3
20865.3
19579.9
17261.7
15484.7
11510.1
15132
23767.1
26772.7
23693.5
27422.7
22978.9
23810.3
22423.7
23964.3
21603.8
21982.5
21429.4
21348.1
23504
27534.3
23392.7
27504.4
21763.1
24251.7
21579.4
24190.9
21686.6
21932.8
21678.2
21917.4
18177.5
17283.1
11717.2
13022.7
18048.9
16823.1
11536
13056.3
18433.4
17235.6
11974.4
13083.7
18508.1
17062.3
12347.7
13095.3
1635.22
1111.48
773.186
961.127
663.928
618.889
2309.76
1392.34
1058.29
1914.65
1545.53
1336.63
2688.19
2255.66
2270.43
3361.11
2762.12
2486.99
24811.1
22471.4
20821.9
22826
21219.2
19917.1
16376.6
15244.1
14623.8
11113.8
9675.1
9067.29
5119.99
3796.42
3225.01
22425.8
20825.6
19442.7
23009.1
21030.6
19476.1
17037.6
14690.4
13354.9
11111.5
8929.81
8040.54
5447.68
3780.34
3041.61
27008.8
26447.3
29401.3
26401.6
30265.2
26412.6
36516.6
27800.2
20772.1
21244.2
20474
19148.7
23472.3
22136.1
23035.1
19704.6
22831.6
22679.4
21048.8
22529.3
28065.9
25183.9
27796.9
28215.7
30173.7
31197.4
23152.2
24021.3
20740.2
20128.9
25223.3
25874.6
16462.8
8850.42
15373.9
9803.33
16680.4
8920.46
15313
9729.82
16468.8
8970.02
15282.6
10141.7
14864
10612.9
15043.9
10527.6
21175.4
18135.4
21041.6
18100.1
23366.2
21123.8
23585.5
20904.3
20617.7
15135.2
21521.3
14945.3
21498.2
18007.8
21764.4
17801.9
24180.6
20725.4
24190.8
20456.5
20410.2
15175.7
20348
15081.4
13538.9
9010.04
11993.6
7645.23
12626.1
8071.57
11532.6
7141.34
13867
9576.51
12183.8
7879.23
13883.4
9925.8
12152.1
7935.9
2557.44
1317.67
4662.79
2433.69
2749.71
1651.94
4989.74
2968.3
3396.99
2518.13
5539.09
3937.63
13188.5
20375.3
9507.95
9120.74
6433.52
19974.8
13952.3
8195.95
8238.03
5284.64
20746.8
16375.6
13045.8
10158.2
6255.16
688.144
516.828
1329.58
960.779
1023.49
709.614
1970.54
1559.17
1805.33
1423.26
2934.91
2386.81
20318.5
19750
13827.1
13335.6
9018.2
9170.11
7596.14
7059.61
4511.96
3709.33
19038.4
17394.1
14814.9
13097.8
11572.9
10376.2
8807.75
8048.53
5530.04
5545.38
15155.3
12367.4
15231
12049.3
18152.5
15146.9
18091.1
14905.7
12802
10489.9
12432.9
10546.6
15223.7
11849.2
15127
11827.2
18010.1
15171.6
17832.7
15121.4
13025
10315.7
13001.9
10452.6
9987.67
8555.44
6547.73
7004.14
9633.18
8383.94
6242.81
6647.43
10410.2
8719.34
6714.6
7421.14
10660.8
8719.99
6982.26
7529.49
1836.83
1623.62
1348.16
8085.83
4312.79
3524.49
1810
1794.6
1598.51
8801.28
5145.21
4369.15
2483.01
2796.42
2873.86
9707.77
6438.28
5746.94
18696.2
17549.1
16702.1
12895.4
12564.1
12339.5
9483.56
9416.3
9430.64
8212.31
7978.29
7799.22
11030.8
7948.9
7200
15930
14752.4
13943.4
11973.1
11205.5
10759.8
10051
9381.95
8989.67
9757.74
8700.04
8073.22
13404
8968.76
8076.95
4859.9
3073.12
2216.36
1902.2
5490.74
3349.48
2342.39
1947.46
4880.93
3067.09
2220.25
1916.87
5612.65
3420.43
2388.71
1970.14
4860.71
3027.99
2219.16
1905.42
5723.98
3461.07
2436.24
1965.96
6172.35
3673.45
2497.34
2049.32
6362.06
3820.68
2581.12
2129.77
5189.41
3227.43
2306.39
1927.57
4180.68
2796.41
2100.3
1852.38
4524.31
2906.15
2143.07
1790.43
3828.22
2626.69
2012.61
1776.22
5634.93
3470.03
2422.73
2017.92
4390.95
2920.56
2156.59
1912.8
5886.43
3634.78
2505.13
2082.18
4482.04
3009.19
2203.14
1946.78
3616.01
2612.99
2007.87
1802.29
2246.58
2056.75
1751.99
1693.08
3622.52
2596.32
2002.37
1797.6
2355.33
2085.88
1761.84
1703.31
3707.47
2590.07
2008.96
1804.46
2688.45
2183.64
1800.63
1745.66
3647.59
2515.36
1965.54
1837.98
2972.88
2250.05
1848.82
1733.24
3355.58
2428.77
1912.75
1748.82
840.267
1602.58
1377.35
414.931
-765.881
1346.3
1221.25
442.126
1087.46
1684.2
1408.59
438.367
-455.335
1438.81
1249.62
451.944
1550.25
1827.6
1458.27
436.962
72.5296
1591.79
1291.13
457.305
2113.96
1997.13
1528.74
475.081
629.954
1760.51
1350.1
477.236
2480.02
2150.63
1615.81
555.776
766.793
1886.22
1404.7
494.599
2645.39
2316.76
1655.65
527.188
417.422
2014.4
1505.17
524.918
2580.49
2243.13
1625.31
527.733
383.874
1954.69
1454.58
506.941
2662.12
2369.06
1681.65
490.515
349.811
2066.27
1539.95
528.254
2720.33
2424.96
1728.47
501.728
454.033
2124.74
1582.32
541.66
1757.74
1342.9
925.125
538.014
176.238
1737.8
1340.01
925.725
538.683
176.47
1780.72
1354.24
930.612
540.556
176.979
1765.78
1354.51
933.096
542.185
177.506
1821.94
1369.62
937.445
543.651
177.876
1798.77
1370.98
941.409
546.152
178.685
1826.29
1389.85
952.416
551.721
180.378
1869.36
1417.1
968.15
559.685
182.8
1864.14
1388.13
947.303
548.484
179.331
1990.56
1410.91
953.77
550.891
179.99
1873.09
1383.37
942.539
545.792
178.479
1987.87
1402.71
948.498
548.163
179.146
1881.41
1404.74
957.17
553.512
180.868
2026.75
1427.02
962.754
555.432
181.38
1923.76
1431.18
971.973
560.943
183.129
2071.75
1450.6
975.573
561.855
183.342
1806.95
1349.79
925.135
537.464
176.028
1900.87
1357.47
925.371
537.147
175.905
1828.66
1358.76
929.222
539.311
176.559
1918.32
1364.24
928.49
538.566
176.316
1870
1372.99
935.381
542.084
177.355
1953.73
1375.87
933.801
540.999
177.014
1937.74
1389.37
941.621
544.804
178.129
1996.24
1388.37
939.866
543.819
177.817
2002.11
1397.81
945.164
546.427
178.602
9640.6
14834.1
10168
15185
10866.2
15563.6
11344.8
15803.4
10895.7
15200.6
10117.9
11394.2
10120.4
11926.8
10180.4
11305.3
10360.5
11447.1
8566.53
1457.96
310.779
69.6197
12.318
9521.76
2707.34
656.535
148.792
26.3148
8664.72
1456.96
308.714
68.8985
12.1564
9621.24
2701.57
652.792
147.244
25.8183
8752.18
1450.49
304.725
67.712
11.9217
9692.62
2692.1
646.972
145.387
25.454
8680.4
1407.56
293.028
64.9453
11.4267
9586.7
2637.64
631.535
141.673
24.7773
8240.69
1302.51
270.568
60.147
10.6061
9087.61
2504.7
601.627
135.342
23.7048
7348.1
1207.61
259.019
58.5174
10.3976
7520.5
2174.13
536.027
122.572
21.6722
7606.97
1230.11
260.734
58.5351
10.3671
7965.34
2298.48
561.699
127.424