/*--------------------------------*- C++ -*----------------------------------*\
  =========                 |
  \\      /  F ield         | OpenFOAM: The Open Source CFD Toolbox
   \\    /   O peration     | Website:  https://openfoam.org
    \\  /    A nd           | Version:  11
     \\/     M anipulation  |
\*---------------------------------------------------------------------------*/
FoamFile
{
    format      ascii;
    class       volScalarField;
    location    "2.1";
    object      gradTz;
}
// * * * * * * * * * * * * * * * * * * * * * * * * * * * * * * * * * * * * * //

dimensions      [0 -1 0 1 0 0 0];

internalField   nonuniform List<scalar> 
5712
(
7271.19
23890.1
5770.83
24497.7
4334.78
25342
6845.18
39081.9
8412
53740
8347.47
39132.1
8050.19
32472.2
8366.69
29010.6
5063.15
3128.5
13534.1
8026.58
4962.8
2674.94
14821.6
7357.39
5530.49
4002.88
17736.1
12464.8
4182.52
3004.81
17445.6
12660.5
9807.3
4150.2
8466.46
3770.81
3891.28
9142.93
33933.1
9200.16
12149.5
4113.92
43729.5
11878.1
11383.9
3940.77
24223.2
7519.74
12431
4339.69
21052.7
6696.23
5919.21
2934.79
8749.28
3405.53
6404.58
3463.2
8533.7
3270.77
8135.66
4634.87
7354.82
3191.83
10887.8
3910.13
3746.94
1307.3
12321.5
8536.49
7626.77
5573.73
13789.6
11345.4
7537.26
6523.05
7220.32
4874.22
10166.7
6796.23
5028.42
3695.59
2557.11
2098.05
4861.45
4199.86
2518.32
2429.31
4820.97
3159.25
2472.15
1585.75
6446.85
3502.59
4829.93
5833.11
8815.93
6272.15
6989.47
9974.65
4268.52
2020.59
2850.41
3342.13
2120.93
880.212
1232.42
1239.47
7784.7
13964.9
5283.4
15594.9
9132.76
13676.9
6501.33
16336.2
10384.5
12391
8380.23
15958.5
12296.5
14686.1
9227.93
8891.8
9734.13
14670.4
13542.8
13284.1
13615.7
19659.4
11924.8
9167.16
7924.4
8875.73
13926.8
16155.6
14410.2
18740.4
17995.1
14793.4
13696.7
18515.1
17625.4
12806.9
12477.8
17375.3
16992
10704.6
8391.34
9951.14
8653.63
10854.7
9683.25
11651.2
11162.8
16008.5
16362
10007.4
8658.29
9536.43
9142.54
9822.04
10385.2
11045.6
12376.7
14408.6
16634.3
8265.72
6489.51
5678.49
7228.96
11184.2
13627.3
7757.65
12272.5
4807.68
6324.46
7157.76
5900.14
1375.86
4799.6
715.807
1726.26
3965.38
8253.29
1466.57
2862.89
655.213
4066.95
368.481
1426.35
4722.08
4797.28
5366.42
3333.69
7470.85
5974.74
8785.96
6057.15
1104.19
2627.81
2662.72
1514.69
1486.79
1928.42
2102.94
1588.65
11462.7
6957.28
2187.02
12979.3
7441.96
2435.05
10994.3
6884.8
2321.24
12781.5
7452.55
2433.44
10116.2
6321.61
2076.32
12478.6
7492.5
2501.9
5482.8
2967.59
802.462
7006.66
4610.07
1601.04
8347.04
5753.91
1983.11
9642.83
6236.49
2069.31
12363.7
7701.69
2692.51
6512.4
3660.18
1160.91
6590.75
4739.72
1786.65
7814.49
5769.51
2117.06
9763.85
6847.34
2446.89
12504.5
7794.49
2763.72
299.433
2013.49
2848.11
4110.75
2183.59
2507.54
5485.51
5204.1
602.819
1034.15
643.636
1077.21
488.427
1417.22
871.288
1858.72
3228.46
1578.66
4081.57
2359.42
2174.09
3796
3408.21
938.562
6086.7
1488.94
-1912.92
725.019
1788.72
1337.3
1242.95
1150.43
9835.66
4521.35
2688.19
1673.47
9989.92
4701.04
3383.64
2118.14
9862.51
5060.83
4911.36
3460.71
3521.9
2545.23
1744.52
1674.19
12628.2
11228.6
5948.72
6175.54
13557.9
12727.2
6691.4
6748.9
5303.9
5462.24
10879.4
9099.01
3554.05
3720.26
1992.45
2263.98
4126.63
4101.86
2271.06
2432.4
3109.71
3354.35
1750.39
2151.73
4744.89
3343.84
4741.92
3394.25
7383.77
4407.33
7054.4
4693.45
2865.78
2425.07
3005.35
2197.61
1609.54
1525.64
1915.48
1292.67
11670.7
8168.87
5920.99
6045.68
11622.1
8365.2
5954.52
6016.98
12060.8
8693.25
6039.85
5848.81
13853.5
14912.1
12679.3
8529.66
4902.87
14129.2
13125.8
12258.7
10192.2
6670.69
13248.7
12013.4
9647.55
7481.39
4737.99
6976.74
6235.78
6546.18
7517.61
7189.93
6125.5
6610.85
7421.04
7490.08
6081.53
6676.31
7321.65
10661.6
7521.89
9990.28
6963.44
7918.06
6423.17
7467.86
6429.24
6195.47
7256.47
8856.07
7684.42
7868.88
6883.14
6765.32
6160.76
6030.94
6027.3
4884.85
6904.35
7035.07
4757.8
4678.25
2789.42
9158.21
7057.49
6372.31
5120.45
3844.43
2312.76
5577.51
4134.91
4734.97
2235.95
1736.93
999.891
4997.76
3612.06
1749.13
1448.81
4115.59
1841.81
1623.18
856.078
3234.64
2997.13
2883.79
4247.96
4502.44
4287
3679.14
5444.71
3269.95
2136.11
2086.35
2880.28
995.191
485.16
231.039
545.686
4323.5
1802.86
531.861
4993.2
1291.22
343.556
4374.48
1947.23
597.709
4983.56
1343.4
375.037
4081.85
1927.61
498.202
4898.49
1367.68
320.386
4635.25
2341.07
518.881
4220.92
2028.48
474.795
4175.83
1995.52
538.017
4176.68
1952.49
411.764
4884.58
1344.1
200.699
5881.81
2948.06
783.825
5334.67
2644.36
720.263
4889.29
2410.28
699.512
4674.74
1992.98
488.157
5293.3
1257.96
306.982
1769.42
635.63
127.343
-192.014
737.24
279.612
76.6269
-37.7072
1875.98
697.584
181.362
-116.767
937.487
388.952
187.663
87.2979
2016.27
776.877
274.678
0.248783
1607.12
749.243
290.446
64.9701
1227.23
691.281
243.412
-13.8688
1152.46
754.626
437.876
258.696
1673.18
742.546
225.784
-175.214
1432.31
627.437
274.369
-174.239
1975.34
766.257
247.961
-123.229
1787.27
696.986
278.021
-285.416
1344.67
691.927
274.98
-57.0218
1101.62
555.19
296.233
2.2573
996.006
610.636
361.647
221.212
761.258
469.906
313.262
183.699
2250.74
765.635
126.106
-382.093
2226.16
704.652
182.583
-520.357
2249.79
777.63
146.772
-363.786
2158.11
686.146
190.663
-504.547
2208.8
781.706
224.381
-255.822
2016.48
650.402
235.119
-410.796
1939.04
724.208
310.127
-26.5954
2212.83
729.545
331.689
-479.252
1733.37
648.638
310.787
-111.948
1762.28
496.616
163.922
-350.746
701.156
180.513
44.5188
-72.3147
1822.61
531.254
182.923
-333.857
731.534
195.606
57.1771
-58.3087
1858.89
570.645
226.344
-291.715
746.488
212.997
73.7862
-41.2217
1678.18
539.216
260.863
-228.376
726.146
220.574
101.487
-10.6842
1539.01
537.687
283.488
-130.45
651.69
233.425
138.624
30.7856
1074.8
434.708
212.234
-39.9185
615.352
305.422
185.12
97.518
1240.4
441.201
217.413
-95.1282
620.466
265.778
162.488
64.7733
867.461
420.846
232.227
36.1159
552.59
321.177
202.885
129.566
614.363
381.847
259.41
160.108
461.732
319.205
222.768
167.53
-17.3535
7.14639
7.26653
5.04107
3.80291
-2.61009
4.85693
4.10404
2.78621
2.10207
8.75508
20.7677
14.8736
9.6782
7.18124
25.62
20.3266
12.8925
8.15077
6.00274
37.2878
37.4064
24.5643
15.7467
11.6593
104.471
69.0364
41.902
26.2656
19.305
125.375
81.4394
49.4055
31.0434
22.8884
182.598
107.865
63.5219
39.5428
29.1072
65.699
54.7146
34.731
22.0709
16.2443
70.5275
51.6535
32.0513
20.3177
14.9625
45.2746
43.891
28.3823
18.1965
13.4597
83.9052
53.7167
32.1649
20.2324
14.8507
85.8113
65.3131
40.954
25.9772
19.1709
94.7922
61.8207
37.5169
23.6339
17.4111
145.107
86.8952
51.3051
31.9658
23.5208
121.302
71.7513
42.2968
26.3529
19.36
-31.9586
3.59132
5.38286
3.87139
2.94474
-17.4472
1.12272
2.11117
1.54836
1.19364
-14.8102
12.1494
10.0875
6.73249
5.04758
-11.3228
4.15426
3.74852
2.52705
1.91463
6.81637
22.112
15.4548
10.042
7.51112
11.8696
14.2294
9.05124
5.68076
4.22587
54.8693
43.4179
26.9699
17.1661
12.7591
36.696
27.4512
16.6569
10.5108
7.81235
101.896
57.0426
33.0415
20.5408
15.0728
1669.81
3815.53
1688.91
3778.01
1848.15
3749.3
2200.81
3899.79
2294.98
4020.74
929.991
1429.59
1518.41
2407.68
498.994
703.598
180.889
237.497
8692.55
2075.86
475.68
106.235
26.3896
2369.34
637.964
169.667
38.5799
8.38535
8593.59
2035.57
465.999
103.201
25.8254
2411.52
711.281
175.291
40.7518
10.1204
8211.72
1931.57
440.525
97.433
24.4104
2340.73
687.78
169.047
39.1039
9.74632
7528.3
1755.1
399.057
88.1844
22.0996
2274.49
654.355
158.751
36.3973
9.02308
6311.54
1463.86
333.006
73.6868
18.4895
2149.67
601.749
144.397
32.8989
8.1316
2992.24
725.691
167.909
37.4246
9.40534
1049.26
298.397
71.0387
15.9054
3.92213
4455.06
1065.29
244.584
54.2491
13.612
1543.76
433.369
104.04
23.69
5.89461
1757.27
429.58
99.8577
22.3656
5.63153
587.705
173.843
41.1432
9.20851
2.29232
607.526
147.64
34.4024
7.73246
1.9484
236.03
63.3668
13.8959
3.89693
0.7584
100.152
489.948
4578.78
-854.624
754.713
808.814
2359.79
3021.65
1905.24
3571.43
3001.82
4628.57
3619.19
4491.25
1880.32
2532.15
2004.59
2377.86
1042.37
1083.82
2311.08
1684.13
542.263
-416.56
-711.808
-852.733
-229.775
13036.4
3225.63
4316.67
2829.12
-104.218
26.5245
3020.15
-1319.95
-710.584
-1000.3
-519.833
7154.2
3797.84
1365.59
1104.86
3688.67
2070.49
677.646
1413.51
-1410.61
-792.274
747.997
604.9
8730.37
4315.3
5375.85
2881.36
4096.05
4529.65
1579.83
-822.281
981.187
1632.86
1332.43
1144.19
1024.32
778.508
1331.61
1070.34
835.58
587.348
252.096
476.013
395.128
299.719
190.506
66.2771
-372.013
-310.356
-231.541
-142.235
-47.8922
-635.941
-531.026
-396.864
-244.268
-82.3176
-762.915
-638.224
-477.954
-294.709
-99.4184
-199.827
-159.525
-111.598
-63.6316
-20.1826
9406.48
8101.84
6864.49
6232.34
5722.92
2836.1
2463.1
2268.18
1870.15
977.845
3293.54
2609.64
2173.89
1683.61
869.729
2163.87
1725.72
1479.94
1128.76
469.915
30.4481
57.2652
154.282
160.227
78.3887
109.09
174.847
202.011
169.958
70.8858
2553.07
2120.08
1658.49
1146.65
467.985
-795.727
-386.055
-151.051
-26.9547
6.24912
-564.759
-401.046
-242.064
-115.119
-29.7977
-702.508
-434.086
-223.134
-87.0991
-18.1053
-471.367
-392.202
-286.884
-170.987
-55.7393
5279.53
4745.12
4074.93
3729.62
3440.78
2915.18
2290.82
1883.61
1416.3
684.094
1251.03
1116.47
933.159
661.507
259.328
969.725
824.91
658.018
448.026
169.339
3070.09
2468.53
1872.07
1238.12
474.713
1829.33
1546.49
1209.34
799.175
288.702
589.911
492.826
382.573
252.122
91.6648
1244.66
1038.93
793.856
508.847
178.702
-1223.34
-986.928
-712.67
-426.444
-141.138
-697.284
-569.167
-412.744
-245.991
-80.8593
666.511
571.411
455.437
306.775
112.975
541.589
466.443
372.634
250.323
91.2609
5627.25
4090.32
3495.24
3186.32
2760.01
3289.71
2550.99
1961.9
1390.95
622.765
3947.08
3218.39
2585.87
1992.47
964.225
2298.48
1867.19
1447.4
1009.82
437.11
3480.88
2840.02
2161.78
1414.44
522.015
3425.61
2529.16
2031.84
1507.39
632.256
1378.23
1142.87
872.245
561.856
199.156
-730.007
-602.899
-443.421
-268.047
-89.0467
862.832
733.36
583.431
394.856
146.463
-27854.1
-45602.8
-23096.3
-36910.5
-24740.6
-51827.8
-29611.8
-65816.8
-17642.3
-12064.7
-19847.1
-12359.9
-16264.5
-10445
-20139.8
-10595.5
-23048.5
-17370.6
-33562.2
-24183.4
-19798.7
-15784.1
-28047.7
-21076.2
-15865.1
-16214.5
-13025.2
-12523.6
-15342.9
-14444.2
-38668.4
-10665.8
-14724.1
-5496.1
-47280.3
-13106.7
-13161.4
-4893.44
-28770.8
-9059.19
-15077.8
-5772.77
-25586.5
-7952.26
-11911.4
-4792.87
-15168.2
-5496.54
-11306.6
-4972.91
-13183.4
-4772.4
-11718.1
-5687.71
-10531.9
-4181.46
-13495.7
-4765.58
-4732.94
-1661.83
-10082.9
-6706.87
-8703.83
-5309.78
-8884.99
-7146.36
-7630.55
-5441.24
-8857.69
-5047.21
-10371.9
-6480.08
-5962
-3559.5
-3205.23
-1969.58
-5141.26
-3544.44
-2670.57
-1901.01
-6061.48
-3298.78
-3343.71
-1677.34
-7812.19
-3967.89
-5059.22
-5881.84
-9916.81
-6665.91
-7127.58
-9931.68
-5294.92
-2375.37
-3027.31
-3394.99
-2854.82
-1149.12
-1362.25
-1285.54
-11716.4
-14263
-6606.23
-16140.1
-12182.8
-13610.9
-7588
-16502.7
-12313
-12393.5
-9043.25
-15704.4
-8411.29
-6781.71
-9217.67
-10227.9
-10205.8
-9274.69
-10731.3
-12460.5
-13410.3
-19044.8
-6381.68
-6596.17
-7185.8
-8695.18
-13578.5
-13547.6
-9451.76
-17194.3
-13230
-12558.8
-9303.21
-16941.3
-13177.5
-11116.6
-8693.38
-15812.8
-13046.9
-7602.04
-6051.37
-7864.19
-6286.32
-8791.34
-7105.03
-9614.9
-8154.33
-14408.4
-13117.5
-7140.01
-6159.83
-7194.67
-6246.1
-7924.46
-7406.39
-9523.94
-9441.82
-13295.4
-13686.7
-6564.3
-5242.59
-4829.11
-6324.34
-8196.45
-11317.5
-6198.43
-10456
-4437.49
-5852.47
-6341.32
-5187.94
-855.603
-4166.5
-253.188
-1230.34
-2983.36
-7182.66
-665.322
-2009.65
-430.648
-3730.38
-149.505
-1152.95
-4566.46
-4545.83
-5260.22
-3169.59
-7073.23
-5503.01
-8514.92
-5604.74
-1014.05
-2456.81
-2588.53
-1408.8
-1391.82
-1783.13
-2031.08
-1493.15
-5735.32
-1972.79
-7762.52
-2648.38
-5863.16
-2059.13
-7946.81
-2852.71
-5817.89
-2027.64
-8415.82
-3245.81
-3560.16
-1000.68
-4444.58
-1705.94
-5025.19
-1950.89
-6051.89
-2292.1
-8885.96
-3539.76
-4530.97
-1374.97
-4093.43
-2026.47
-4945.63
-2357.93
-6672.12
-2919.94
-9216.18
-3485.62
-6129.6
-5745.39
-4625.96
-4543.4
-10287.8
-7864.75
-8363.48
-6928.96
-4140.35
-3587.31
-1695.21
-1216.53
-3902.89
-3768.42
-1562.33
-1629.02
-2960.99
-4612.52
-3520.3
-4984.58
-3753.48
-2475.12
-3221.64
-511.552
-6789.41
-1780.12
2587.57
417.848
-924.542
-289.83
229.254
664.356
-2429.7
-1707.68
-905.306
-537.644
-2586.68
-1810.66
-1362.4
-626.826
-2891.97
-2177.58
-1812.6
-874.077
-1191.38
-93.6841
634.704
1066.29
-5077.51
-5466.7
-3920.05
-3672.65
-6859.03
-6874.28
-5692.34
-4782.41
-2558.13
-2864.71
-3834.73
-4417.32
-2368.97
-2059.97
-988.897
-908.822
-3653.11
-2868.96
-1843.97
-1450.32
-1326.47
-1491.34
-221.665
-574.031
-1684.16
-1186.98
-2439.93
-1765.57
-2641.88
-2146.14
-3769.61
-2898.17
-602.293
-360.188
-1188.53
-687.607
398.93
527.352
-300.907
160.493
-3534.43
-4440.36
-2994.29
-4433.11
-3497.09
-4436.92
-3063.29
-4424.02
-3692.37
-4114.28
-3235.51
-4202.49
-2851.37
-4758.54
-2429.25
-2119.95
-2296.93
-7137.85
-5041.73
-4609.09
-4758.83
-4859.69
-5730.41
-4798.37
-4045.99
-3754.37
-2937.81
-5263.64
-5272.23
-6843.85
-10581.1
-4993.39
-4747.67
-6568.94
-10087.4
-4603.5
-4398.28
-6063.35
-9303.64
-6947.46
-5325.94
-6237.19
-4730.4
-5418.43
-4293.79
-5498.93
-5033.81
-5624.71
-8596.36
-5627.37
-5301.11
-4745
-4747.12
-4236.38
-4461.77
-4333.89
-5148.58
-3933.01
-7509.62
-3883.46
-2762.11
-2665.12
-969.261
-5622.34
-4920.41
-4360.43
-3216.6
-2043.66
-719.896
-3124.2
-2478.68
-3215.93
-978.6
-451.533
109.292
-3624.99
-2373.15
-647.362
-376.918
-2638.71
-701.556
-291.253
179.584
-1845.39
-1895.9
-2004.46
-3781.38
-2866.56
-3228.3
-2865.16
-5272.62
-1989.04
-1243.96
-1102.96
-2301.86
253.314
395.194
815.03
145.944
-3769.98
-1097.38
-7097.92
-701.464
-3527.71
-1185.02
-6903.76
-728.082
-2713.04
-717.717
-6274.96
-560.485
-2927.67
-657.524
-2674.52
-621.342
-2874.96
-872.228
-2974.96
-551.936
-5900.95
-737.947
-4066.78
-798.394
-3711.24
-594.565
-3729.04
-726.755
-4093.42
-598.774
-6198.74
-743.095
-745.063
-154.252
161.862
408.463
-250.827
-39.206
62.0035
127.74
-734.382
-121.293
175.961
381.905
-171.157
31.2935
60.5986
70.2066
-751.625
-83.05
172.153
330.768
-10.7044
229.238
359.182
392.717
531.619
458.544
529.789
541.326
980.116
690.124
527.195
380.604
-327.098
115.489
372.11
622.934
-262.644
167.715
289.909
619.751
-810.137
-68.06
233.637
507.909
-617.01
55.0874
255.954
759.609
129.634
298.821
398.781
526.623
59.9067
266.451
293.953
444.379
571.762
471.047
388.645
303.844
401.124
368.292
298.011
278.687
-1181.7
-263.516
191.632
667.401
-1471.01
-310.457
56.2887
829.795
-1133.55
-228.123
208.816
680.013
-1414.8
-286.917
57.5171
821
-1054.27
-174.193
161.716
583.58
-1285.17
-242.186
23.8747
743.125
-699.194
-34.8652
143.853
413.337
-1329.75
-206.273
19.3618
921.419
-649.919
20.1959
169.866
582.974
-1365.13
-237.224
-5.28414
581.105
-593.967
-90.6707
22.0095
146.602
-1275.33
-203.434
12.354
583.472
-565.23
-79.5461
24.8955
144.04
-1093.37
-137.451
18.6774
565.524
-481.312
-51.8498
37.438
150.26
-896.97
-82.6781
1.09541
505.373
-393.692
-23.6786
36.1833
143.171
-655.092
6.024
48.0817
431.996
-202.074
40.6962
48.7716
138.807
-290.849
127.19
202.658
406.768
99.0116
196.96
171.799
199.554
-539.314
33.0454
121.455
415.8
-16.8058
125.916
109.69
169.326
10.956
228.513
248.824
367.694
214.942
253.594
215.322
212.193
311.956
314.155
255.764
262.623
333.271
295.212
226.229
194.823
90.4493
25.6118
10.1551
5.45078
3.85188
38.1229
12.2092
5.17437
2.83535
2.00543
105.058
36.8824
17.2882
9.98121
7.22059
59.9869
26.5061
13.8668
8.31835
6.08417
128.876
51.3812
25.9572
15.3289
11.1481
151.903
76.5866
42.4661
25.8917
19.0273
168.675
88.4781
49.6111
30.2738
22.1946
187.953
108.515
63.1128
39.0258
28.6953
154.234
67.6372
35.8292
21.5099
15.7825
130.585
59.5728
32.0176
19.2486
14.1199
139.191
55.5685
28.5103
16.8645
12.2903
114.167
55.1782
30.485
18.4321
13.5559
165.564
77.6452
42.0041
25.3513
18.5709
133.135
67.3267
37.4121
22.7478
16.7187
156.667
88.2983
51.0475
31.5064
23.1556
130.47
73.0236
42.0888
25.9394
19.071
98.6639
22.798
8.20345
4.24528
2.96571
45.8776
9.19208
3.11109
1.56167
1.06939
105.818
29.3341
12.4541
6.95337
4.96028
48.4796
11.578
4.68209
2.57618
1.81401
108.582
35.2428
16.636
9.60964
6.89282
54.1778
19.1533
9.75976
5.86068
4.23622
119.712
48.9084
25.6662
15.2378
11.0271
70.7753
29.2913
15.7086
9.41245
6.80955
100.11
54.2391
31.0001
18.9786
13.9554
-1817.28
-3431.87
-1867.57
-3436.8
-2031.46
-3460.36
-2228.76
-3550.16
-2155.83
-3566.16
-851.111
-1320.95
-1410.32
-2193.87
-424.951
-626.167
-107.276
-169.071
-8782.02
-2080.33
-473.989
-105.392
-26.0801
-2364.13
-638.078
-169.214
-38.3169
-8.29036
-8629.74
-2031.57
-463.07
-102.199
-25.4956
-2410.46
-711.647
-174.694
-40.4492
-10.0079
-8159.43
-1914.54
-435.792
-96.2097
-24.0576
-2332.89
-685.487
-167.947
-38.7261
-9.62326
-7401.42
-1727.77
-393.013
-86.8276
-21.7445
-2240.96
-646.887
-156.847
-35.9099
-8.88694
-6173.31
-1436.03
-327.177
-72.4429
-18.1798
-2087.15
-589.564
-141.825
-32.3299
-7.98811
-2945.28
-714.155
-165.246
-36.836
-9.25859
-1006.62
-288.181
-68.7996
-15.4286
-3.80762
-4368.52
-1045.72
-240.313
-53.333
-13.3874
-1485.99
-421.404
-101.552
-23.1625
-5.76738
-1731.18
-423.051
-98.2867
-22.007
-5.53971
-555.663
-165.424
-39.1666
-8.77173
-2.18426
-590.109
-143.368
-33.3537
-7.4868
-1.88409
-208.78
-56.0072
-12.0885
-3.48211
-0.653908
127.224
-1119.3
-5487.41
835.33
-6481.83
-2849.78
-6276.09
-2892.37
-11457.6
-6111.17
-12843.9
-6805.74
-128.137
-498.078
-780.992
-920.246
-823.597
-319.773
-209.984
-775.984
-1178.19
-1304.14
-1052.83
-351.951
-108.359
-115.336
-397.954
-400.137
-568.256
-562.439
-546.349
-519.402
-485.55
-470.048
-370.275
-340.411
851.917
2179.34
3533.75
2509.62
2303.36
1103.96
791.899
2255.67
3655.71
4242.02
3541.95
1609.58
-115.508
-97.5922
-73.9122
-46.0368
-15.6278
-449.629
-380.58
-288.797
-180.167
-61.2141
-704.972
-596.65
-452.722
-282.426
-95.9598
-830.39
-702.521
-532.847
-332.311
-112.891
-743.101
-628.526
-476.522
-297.037
-100.873
-290.609
-247.318
-188.008
-117.057
-39.6526
-189.17
-159.711
-120.877
-75.2539
-25.5404
-700.042
-592.082
-448.973
-279.959
-95.0983
-1062.55
-898.384
-681.07
-424.637
-144.244
-1175.26
-992.884
-752.216
-468.818
-159.232
-947.99
-800.179
-605.783
-377.401
-128.168
-318.116
-269.433
-204.35
-127.305
-43.1991
-97.7501
-82.6666
-62.6683
-39.0619
-13.2645
-104.111
-88.1115
-66.8476
-41.6931
-14.1632
-359.385
-304.345
-231.056
-144.194
-48.9983
-361.421
-306.126
-232.452
-145.086
-49.3056
-513.133
-434.497
-329.829
-205.818
-69.9358
-507.846
-429.974
-326.362
-203.64
-69.1937
-493.343
-417.718
-317.048
-197.803
-67.2008
-468.725
-396.587
-300.812
-187.591
-63.7199
-438.392
-371.032
-281.368
-175.352
-59.5251
-423.635
-357.85
-270.951
-168.718
-57.2594
-334.763
-283.371
-214.481
-133.206
-45.0804
-306.575
-258.588
-195.344
-121.325
-41.0991
755.806
629.859
473.996
295.897
101.036
1925.29
1600.06
1204.01
753.819
258.657
3085.31
2546.74
1918.54
1213.23
423.331
2176.1
1792.22
1354.27
861.171
301.753
2029.27
1676.4
1261.15
788.618
256.883
1003.22
846.482
646.118
405.413
129.086
703.638
586.866
441.389
275.036
93.7317
1999.27
1664.77
1252.06
781.504
267.028
3219.87
2669.66
2006.95
1257.39
432.243
3711.08
3063.49
2302.83
1448.92
501.429
3098.2
2557.27
1923.88
1211.67
417.891
1423.15
1187.15
901.137
570.432
196.553
270.752
639.859
920.571
1055.73
951.97
453.825
409.166
971.068
1361.69
1462.93
1172.73
432.611
220.114
209.438
506.81
492.526
669.347
648.254
632.317
587.215
565.727
484.833
507.296
386.143
-697.344
-1945.46
-3129.33
-1969.18
-1646.56
-387.032
-724.604
-2147.73
-3416.64
-3811.81
-2923.17
-872.054
244.865
207.738
158.017
98.7714
33.5944
578.333
490.251
372.604
232.753
79.1403
831.796
704.865
535.537
334.449
113.704
953.723
807.997
613.76
383.241
130.282
860.312
729.125
553.981
345.938
117.599
413.214
352.749
269.337
168.475
57.2539
369.936
313.729
238.56
149.083
50.7014
877.242
743.201
564.555
352.534
119.848
1229.44
1040.96
790.319
493.34
167.692
1319.98
1116.84
847.453
528.844
179.744
1057.55
894.307
678.341
423.255
143.861
391.865
332.823
253.231
158.201
53.7746
199.091
168.923
128.504
80.3279
27.3215
189.432
160.72
122.257
76.4177
25.9904
458.163
388.482
295.325
184.506
62.7366
445.261
377.546
287.011
179.311
60.97
604.961
512.824
389.75
243.448
82.7683
585.842
496.549
377.329
235.666
80.1192
571.576
484.598
368.332
230.071
78.2166
530.526
449.515
341.475
213.217
72.4757
511.78
434.215
330.173
206.242
70.1047
437.929
370.939
281.674
175.81
59.7453
460.345
391.655
298.253
186.294
63.2777
349.137
295.957
224.776
140.239
47.6312
-614.77
-508.879
-380.951
-237.266
-81.0245
-1712.24
-1417.66
-1064.1
-665.948
-228.764
-2714.09
-2225.9
-1670.17
-1056.27
-369.893
-1665.55
-1337.33
-990.613
-623.962
-218.537
-1402.11
-1113.42
-806.758
-487.994
-149.003
-316.715
-228.206
-145.213
-72.6578
-9.66868
-642.536
-534.81
-401.643
-250.142
-85.2601
-1901.65
-1581.99
-1189.2
-742.357
-253.77
-3001.49
-2482.09
-1862.55
-1166.41
-401.22
-3313.18
-2716.78
-2031.71
-1275.52
-441.61
-2520.84
-2049.58
-1522.86
-952.42
-327.533
-732.363
-577.146
-417.089
-256.123
-86.6946
-1429.77
-900.642
-239.029
674.286
974.731
1238.52
580.638
-10829.8
-1696.66
-3134.1
-1498.02
263.638
-3946.98
846.851
2472.03
1174
-5874.1
-2668.06
-444.956
-538.705
-3326.35
-1250.89
-244.038
-1000.05
2143.24
1344.2
-495.572
-150.779
-7708.32
-3567.23
-4244.63
-2045.65
-3486.77
-3310.43
-1058.84
1361.61
-367.417
-690.146
-448.672
-385.757
-482.777
-556.632
-553.858
-351.412
-236.912
-176.356
-97.3016
-197.225
-153.882
-112.539
-71.7313
-25.5799
610.004
517.395
393.124
245.34
83.3628
878.899
742.532
562.06
349.759
118.632
1116.77
943.676
714.626
444.948
150.979
527.103
447.282
338.335
209.296
70.4657
-7694.76
-6801.66
-6046.88
-6044.2
-6253.27
-1076.67
-709.173
-820.007
-951.131
-673.721
-2183.2
-1591.69
-1363.43
-1184.45
-728.81
-953.494
-619.557
-565.921
-506.812
-227.128
245.375
201.891
134.815
63.4885
12.3081
-3277.87
-2669.43
-2042.12
-1381.78
-554.085
766.849
642.268
474.312
283.927
91.7115
2147.12
1751.89
1293.54
796.042
269.514
1053.44
882.768
661.477
407.422
136.844
-4062.31
-3731.62
-3343.34
-3379.15
-3534.52
-1817.74
-1288.56
-1081.43
-909.411
-525.04
-341.398
-278.542
-251.074
-216.518
-106.479
-429.678
-340.627
-271.537
-199.084
-84.2277
-2761.9
-2221.59
-1697.25
-1140.53
-447.987
-1046.1
-842.921
-646.257
-434.174
-162.119
-185.068
-136.42
-101.622
-71.8326
-29.6179
-860.242
-702.519
-530.577
-341.108
-121.26
1912.39
1597.75
1197.93
740.628
250.181
1211.43
1020.83
768.654
474.876
159.958
-411.517
-330.941
-255.81
-174.589
-67.0159
-111.072
-82.1107
-66.3657
-52.4609
-22.9812
-4665.3
-3222.62
-2799.35
-2758.69
-2682.71
-2576.07
-1907.02
-1440.92
-1048.09
-502.178
-2806.4
-2187.8
-1742.19
-1439.15
-751.898
-1501.93
-1148.93
-868.837
-632.335
-307.719
-2913.47
-2341.57
-1771.44
-1166.8
-438.142
-2276.56
-1483.14
-1201.9
-982.067
-456.568
-896.179
-722.942
-544.875
-353.915
-128.107
1228.97
1037.86
783.608
485.497
163.925
-281.064
-214.228
-170.149
-128.286
-54.6365
1.85769
43.4553
98.7691
127.741
90.0804
-18.6115
-19700.4
-17390.6
-16578.7
-18895.8
-14435.1
-11426.1
-13001.3
-9868.97
-17073.2
-14963.5
-15730.7
-14793.3
-13804.1
-11757.8
-14510.3
-16209.7
-14487.8
-13318.8
-15021.9
-12177.5
-10312.1
-10884.1
-8727.46
-15311.2
-13602.4
-14106.3
-12849.7
-12215.6
-11410.2
-11776.2
-12726.3
-11662.7
-10542
-11534.6
-10120.2
-8688.93
-9092.22
-7810.75
-12815.7
-11639.6
-11929.1
-10881
-10376.7
-9596.81
-9872.82
-8883.28
-8357.1
-7438.39
-7888.81
-7497.54
-6723.34
-6755.76
-6183.97
-9227.49
-9320.44
-8705.52
-8778.25
-7762.34
-7015.23
-7789.83
-5678.88
-5427.43
-4787.95
-4996.57
-5021.89
-4547.05
-4460.87
-4124.22
-6109.59
-6104.86
-5836.92
-5706.96
-5313.18
-4799.64
-5190.86
-2043.97
-1971.13
-1732.58
-1794.3
-1855.53
-1734.62
-1635.36
-1525.66
-2317.3
-2312.07
-2167.81
-2065.87
-1997.02
-1832.71
-1961.12
-7487.62
-7382.67
-11177.9
-12050.6
-7048.98
-6262
-9807.01
-7974.99
-5885.85
-4408.56
-5844.06
-4371.9
-5872.06
-5614.31
-4440.22
-7462.97
-7084.06
-9945.13
-10847
-6581.01
-5962.46
-8650.9
-7455.46
-5864.49
-3897.13
-5763.3
-4114.28
-5270.08
-5065.54
-4489.93
-6818.81
-6504.27
-8431.05
-9040.5
-6118.56
-5699.79
-7547.81
-6686.11
-4865.64
-4250.38
-4854.91
-4479.58
-4542.46
-4544.76
-4639.36
-5513.14
-5313.29
-6318.95
-6635.25
-5051.9
-4731
-5854.41
-5349.09
-4683.44
-3843.9
-4607.66
-4095.95
-4317.49
-4283.09
-4172.39
-3811.44
-3696.01
-4179.37
-4337.23
-3439.07
-3187.85
-3940.82
-3622.6
-3297.08
-2969.41
-3223.88
-3118.94
-3021.47
-2964.42
-2971.8
-1420.13
-1378.52
-1527.79
-1577.89
-1276.68
-1174.42
-1449.17
-1336.01
-1078.07
-1089.2
-1152.13
-1184.95
-1119.78
-1086.46
-1085.39
7238.29
23397
5739.07
24495.6
4318.35
25343.9
6840.93
39090.2
8407.05
53751.8
8330.84
39128.6
8015.91
32454.8
8343.11
28381.9
5055.93
3126.8
13534.9
8026.7
4961.27
2674.76
14824.9
7358.56
5495.9
3975.87
17380.8
12231.2
4161.71
2996.12
17460.2
12678.1
9813.42
4143.5
8466.92
3768.44
3886.52
9150.78
33942.3
9201.44
12151.6
4113.97
43739.8
11880.3
11386.2
3941.44
24235.8
7522.05
12434.5
4340.26
21069.3
6699.23
5861.87
2906.8
8595.43
3347.75
6405.3
3463.74
8548.03
3276.18
8134.73
4635.04
7359.47
3194.06
10896.8
3913.53
3749.11
1308.15
12320.5
8535.8
7626.61
5573.53
13788
11344.2
7537.4
6522.88
7220.45
4874.19
10165.9
6795.95
5028.81
3695.61
2556.75
2097.87
4862.1
4200
2518.38
2429.31
4821.77
3159.33
2471.93
1585.56
6447.69
3503.14
4830.1
5833.41
8815.79
6272.46
6989.55
9975.06
4269.86
2021.17
2850.58
3342.32
2121.08
880.313
1232.32
1239.48
7738.59
13960.1
5250.82
15586.2
9134.78
13672.7
6504.61
16333.1
10384.6
12389.9
8381.02
15957.9
12295.5
14683.9
9227.49
8892.23
9734.89
14668.4
13541.6
13283.3
13615.3
19659.5
11923.2
9166.28
7924
8875.75
13927.2
16179.7
14449.5
18746.7
17976.6
14786.3
13691.3
18506.9
17620.3
12804.2
12474.2
17373.9
16990.1
10703.2
8390.31
9950.06
8652.56
10853.6
9681.9
11649.7
11160.9
16007.8
16360.9
10006.3
8657.27
9535.6
9141.54
9821.35
10384.2
11045.1
12375.8
14408.6
16633.7
8265.22
6489.26
5678.29
7228.92
11183.2
13626.6
7757.24
12272.1
4807.63
6324.55
7157.53
5900.04
1375.74
4799.59
715.722
1726.22
3965.25
8253.11
1466.57
2862.86
655.122
4067.01
368.372
1426.32
4722.18
4797.4
5366.64
3333.77
7470.86
5974.77
8786.23
6057.22
1104.19
2627.87
2662.82
1514.72
1486.78
1928.44
2102.98
1588.67
11490.7
6971.65
2195.68
12986.2
7451.89
2438.46
10990.6
6883.76
2321.15
12778.3
7450.91
2433.26
10113.6
6320.37
2076.02
12476.7
7491.2
2501.55
5482.02
2967.09
802.293
7005.71
4609.42
1600.82
8345.76
5753.06
1982.83
9641.12
6235.43
2069
12362.5
7700.69
2692.17
6511.59
3659.64
1160.71
6589.81
4739.01
1786.38
7813.44
5768.68
2116.74
9762.78
6846.45
2446.55
12503.6
7793.62
2763.36
304.891
2015.6
2862.53
4115.25
2186
2508.64
5493.55
5206.7
585.86
1021.57
624.403
1060.34
492.756
1416.81
875.715
1857.87
3240.73
1583.93
4086.23
2360.74
2177.81
3804.02
3412.96
942.509
6089.57
1490.97
-1900.85
733.45
1794.5
1342.53
1252.75
1158.25
9848.46
4517.86
2677.4
1665.76
9981
4700.86
3381.47
2117.98
9857.54
5059.83
4912.79
3460.39
3525.96
2545.78
1749.5
1676.01
12624.6
11226.6
5949.71
6175.62
13555.3
12725.4
6691.97
6748.9
5304.95
5462.25
10875.8
9097.26
3556.24
3720.86
1994.24
2264.58
4127.96
4102.25
2271.92
2432.71
3112.19
3354.94
1752.71
2152.43
4745.3
3343.86
4741.83
3394.16
7381.38
4406.63
7053.15
4692.87
2867.6
2425.65
3005.8
2197.86
1611.7
1526.69
1916.12
1293.13
11700.9
8173.86
5923.44
6046.1
11613.7
8364.49
5953.18
6016.81
12053
8689.78
6038.11
5847.57
13848.5
14908.5
12674.2
8526.11
4901.79
14126.3
13121.9
12254.4
10188.6
6669.26
13246.3
12010.6
9645.07
7479.58
4737.22
6975.58
6238.53
6542.14
7511.59
7187.94
6125.23
6608.4
7419.93
7487.92
6080.08
6675.41
7320.98
10659.7
7520.7
9987.8
6962.02
7915.63
6421.67
7465.71
6427.79
6194.39
7255.54
8854.48
7683.2
7866.93
6881.74
6763.45
6159.39
6029.44
6026.11
4884.03
6903.42
7033.47
4756.79
4677.74
2788.96
9156.78
7056.54
6371.81
5119.97
3843.99
2312.38
5576.15
4134.03
4734.96
2235.82
1737.2
1000
4997.71
3611.9
1749.27
1448.87
4115.59
1841.72
1623.49
856.212
3234.32
2996.75
2883.57
4247.56
4501.49
4286.25
3678.63
5444.06
3269.95
2136
2086.38
2880.13
995.509
485.304
231.333
545.807
4327.43
1807.24
534.142
4997.98
1298.81
345.466
4373.21
1947.42
597.73
4981.43
1342.02
375.072
4080.87
1927.29
498.181
4897.71
1367.1
320.265
4634.48
2340.63
518.741
4220.1
2028.06
474.665
4174.95
1995.11
537.902
4175.77
1952.08
411.642
4883.9
1343.76
200.595
5880.97
2947.57
783.658
5333.76
2643.89
720.111
4888.39
2409.84
699.374
4673.93
1992.58
488.028
5292.63
1257.74
306.916
1762.4
631.632
124.995
-192.888
729.943
275.933
74.9075
-38.4291
1876.27
697.648
181.327
-116.948
937.602
388.984
187.59
87.1573
2016.18
776.844
274.639
0.132712
1607
749.217
290.419
64.8632
1227.34
691.341
243.46
-13.869
1153.05
754.888
438.007
258.745
1673.19
742.574
225.806
-175.23
1432.35
627.484
274.405
-174.203
1975.17
766.223
247.957
-123.267
1787.15
696.97
278.028
-285.395
1344.88
692.042
275.05
-56.9929
1101.79
555.297
296.3
2.30255
996.45
610.853
361.764
221.267
761.538
470.068
313.36
183.76
2249.92
764.683
124.626
-383.2
2228.55
705.229
182.031
-521.991
2249.33
777.419
146.735
-363.867
2157.65
685.979
190.738
-504.419
2208.42
781.583
224.374
-255.817
2016.03
650.261
235.137
-410.698
1938.72
724.098
310.089
-26.6442
2212.43
729.435
331.682
-479.184
1733.17
648.583
310.762
-111.998
1767.57
498.567
164.339
-353.001
704.551
181.627
44.6882
-73.1713
1820.15
530.478
182.766
-333.474
730.503
195.313
57.0908
-58.1402
1858.33
570.441
226.352
-291.582
746.197
212.898
73.7781
-41.1408
1677.82
539.092
260.847
-228.31
725.969
220.509
101.473
-10.6562
1538.77
537.614
283.468
-130.42
651.579
233.383
138.605
30.7885
1074.8
434.74
212.26
-39.8866
615.372
305.443
185.131
97.5263
1240.29
441.185
217.415
-95.1024
620.415
265.76
162.477
64.7711
867.569
420.929
232.282
36.1629
552.687
321.244
202.926
129.595
614.559
381.976
259.492
160.169
461.894
319.315
222.838
167.58
-18.4149
6.47578
6.86109
4.77628
3.59782
-3.31779
4.39625
3.81175
2.58664
1.94324
8.7314
20.7537
14.8605
9.66649
7.16742
25.6173
20.3289
12.8944
8.15293
5.99749
37.2351
37.3676
24.5306
15.7173
11.6293
104.405
68.9832
41.8568
26.2273
19.2698
125.361
81.4231
49.39