/*--------------------------------*- C++ -*----------------------------------*\
  =========                 |
  \\      /  F ield         | OpenFOAM: The Open Source CFD Toolbox
   \\    /   O peration     | Website:  https://openfoam.org
    \\  /    A nd           | Version:  11
     \\/     M anipulation  |
\*---------------------------------------------------------------------------*/
FoamFile
{
    format      ascii;
    class       volScalarField;
    location    "2.1";
    object      gradTx;
}
// * * * * * * * * * * * * * * * * * * * * * * * * * * * * * * * * * * * * * //

dimensions      [0 -1 0 1 0 0 0];

internalField   nonuniform List<scalar> 
5712
(
-6643.03
-8490.86
-15779.1
-23039.4
-23499.5
-40567.3
-18067
-46031.5
-14718.9
-32342.2
-22010.7
-33480.3
-19754.6
-25898
-8686.05
-9930.32
-14809.3
-16962.7
-19148.2
-18987.5
-15070.7
-18623.6
-22217
-19934.1
-5400.15
-4055.95
-6717.45
-4515.03
-12514.1
-10001.2
-21374.6
-15473.6
-16563.1
-17210.9
-18379.6
-17520.2
-6440.3
-5048.14
-39216.1
-52499.1
-25331
-31100.2
-52752.7
-68447.3
-27284.2
-31235.8
-29066.7
-41060.9
-25359.5
-33617.1
-14838.3
-23920.8
-2844.96
-958.921
-2996.56
-1080.02
-8590.17
-3466.98
-11786.9
-4335.57
-8383.5
-3216.62
-8922.46
-2860.87
-15208.9
-4838.79
-19624
-6620.18
-24027.5
-11926
-21997
-13037.3
-22536.2
-14574.2
-19820.8
-14906.7
-17290.9
-10269.7
-17288.7
-8807
-22695.1
-14512.3
-22744.7
-14647.5
-20935.1
-15781.6
-21188
-15853.1
-18676.4
-11862
-19344
-12154.5
-17662.4
-7646.74
-8156.76
-9931.81
-17734.9
-8358.83
-7114.96
-10062.7
-18704.9
-7611.7
-9246.98
-10006.8
-19632.6
-7795.81
-10058.6
-10455.1
-3686.44
-4025.7
-1238.16
-2420.94
-10796.2
-11411.6
-4169.04
-7392.36
-13826.3
-15366.3
-6661.96
-11328.9
-12287.1
-1075.68
-13588.5
-16757.1
-9097.22
-735.561
-7451.22
-12211.5
-19678.1
-13657.2
-9895.28
-12017.7
-10505.3
-9060.62
-14211.9
-3542.81
-2921.47
-2024.18
-2007.66
-9988.51
-8426.99
-6014.21
-5720.03
-12473.8
-10562.7
-7855.64
-7046.28
-5853.92
-7450.95
-12085.9
-12524.4
-14062.9
-12794.4
-15853.8
-13801.6
-10722.6
-9023.71
-9067.02
-9553.05
-11969.8
-9457
-10910.1
-7950.75
-9442.73
-6518.15
-11000.4
-7213.74
-10252.5
-4798.81
-8802.15
-9543.34
-12575.3
-16407.2
-13834.3
-20141.9
-7004.5
-7783.62
-9081.68
-2916.44
-7843.72
-15120.4
-7441.44
-16210.5
-13696.7
-24863.6
-13935.7
-26386.8
-5929.65
-12990.4
-5388.61
-13843.1
-8192.63
-6199.44
-11395.2
-4519.47
-8434.39
-1688.81
-9936.84
-773.099
-7870.73
-9287.7
-11937.5
-5520.55
-6510.1
-10950
-10563.3
-7241.26
-2326.45
-2052.74
-1838.46
-1670.5
-1534.19
-1373.74
-6891.32
-5665.01
-4910.98
-4423.65
-3566.07
-3098.36
-8452.36
-7299.54
-6746.92
-5326.11
-4353.11
-4116.71
-6556.2
-5807.74
-5667.58
-10932
-8326.52
-7018.48
-10295.1
-7624.04
-6190.97
-10808.6
-8546.84
-7438.34
-6709.41
-4432.16
-3461.63
-15730.2
-13628.3
-11811.1
-10105.5
-8422.1
-7001.45
-8971.39
-6984.88
-5582.75
-7529.9
-5448.26
-4191.23
-7738.53
-4316.15
-2438
-10366.6
-14044.5
-8198.22
-10595.3
-11159.1
-16395.5
-9968.5
-14515.3
-37.3401
-727.075
508.487
-99.9286
-2958.34
-3346.77
-1222.88
-654.679
-682.202
-2392.93
-9388.91
-13711.2
-6648.79
-3650.49
-9888.17
-9815.73
-15240.8
-16788.2
613.17
4136.92
-7557.57
-7126.08
-7175.19
-5535.37
-1022.7
-543.464
-663.229
-266.602
-1976.74
-195.082
362.776
864.818
-9222.81
-2389.48
-6234.66
-1621.56
-9024.97
-2752.71
-10928.8
-3523.04
-8806.9
-11912
-8147.7
-11621.6
-14160.7
-14998.6
-13519
-14207.1
-5635.94
-9418.47
-6505.19
-9354.84
-8648.32
-11197.9
-9543.1
-11316.6
-14087.3
-13956.7
-14752.6
-14018
-5691.2
-9117.5
-6195.89
-9289.9
133.31
-1359.74
-7440.8
-4694.58
701.262
-944.367
-6893.48
-4149.79
-326.228
-1618.37
-7611.2
-5116.86
-782.983
-1892.14
-7655.88
-5302.43
698.438
805.174
-166.45
-15.4891
2940.6
2978.99
220.977
384.176
615.449
2012.95
-1686.69
-1030.86
10269.7
9570.44
5590.44
4292.32
441.023
10492.7
10810.2
4336.14
6412.47
837.608
-10236
-8037.06
-7159.94
-6745.04
-4129.25
820.481
762.174
36.1584
-67.7008
2594.78
2555.86
109.519
-138.893
2613.21
3171.31
-698.006
-1026.95
5137.03
2334.12
8180.12
5137.99
3666.86
2790.99
4142.38
3606
-454.382
-1407.35
-3764.23
-2376.04
-1030.19
1032.43
-1003.73
770.191
-1727.51
-385.074
-2143.69
-2454.65
-5226.36
-4783.02
-9946.13
-6002.65
-8114.2
-8176.67
-12320.8
-9986.27
-7866.61
-4638.64
-3927.14
-3906.65
-11726.9
-5179.45
-12901.3
-5809.12
-13742.7
-10191.7
-14667.2
-10925
-9543.88
-3778.54
-10693.4
-4380.89
-6247.29
-4975.35
-4868.84
-7221.92
-4049.37
-4574.36
-4165.14
-6697.17
-7208.13
-4922.5
-5500.8
-8290.92
-8756.24
-5350.92
-6879.91
-8563.23
779.54
835.144
940.123
23.6124
292.383
328.949
2841.17
3022.96
3023.91
219.882
837.939
843.147
3592.55
4017.09
4126.28
-595.124
814.203
1104.69
1254.47
1072.45
770.389
3790.92
3878.09
3619.31
3106.29
3515.28
3460.13
3844.86
4142.18
4045.84
-1356.03
362.569
493.627
-3453.62
-1965.29
-1038.76
1023.91
2155.18
2759.58
985.695
2436.17
3069.03
436.046
2010.72
2464.93
-2336.26
511.713
850.484
28.9172
40.2606
51.6689
78.101
269.662
153.209
128.121
124.479
11.9972
79.1946
183.569
283.825
439.767
282.527
318.712
342.635
-221.489
32.1414
262.83
506.813
165.88
231.683
298.237
339.533
40.0636
139.485
143.118
140.591
-212.468
-5.52442
121.003
205.005
-944.003
-192.783
97.3688
305.31
-1478.95
-343.393
1.39283
526.342
-653.974
-78.7169
180.995
452.222
-1214.44
-260.365
-17.3781
459.403
-1007.32
-231.771
124.902
387.675
-1659.78
-409.402
-0.982213
619.585
-1126.52
-308.695
114.978
462.733
-1789.75
-469.562
-22.5454
647.895
9.53572
23.7668
45.1919
98.3401
39.0615
32.5633
26.9521
89.911
73.9407
81.2041
140.562
266.37
168.978
110.147
84.1668
243.481
-400.517
-47.1923
153.374
454.134
-178.628
31.5189
110.973
429.809
-74.9625
122.494
228.266
454.868
-15.1226
98.6042
94.4591
433.55
-1043.37
-198.128
22.4511
604.273
86.182
45.6216
33.1241
68.4907
163.536
66.5365
35.0804
32.0493
176.706
108.548
72.4568
175.916
417.268
176.917
88.1705
82.2615
104.346
121.069
100.582
289.386
527.233
248.848
133.108
129.716
-92.1863
110.656
126.995
402.761
413.168
269.136
158.341
164.923
-542.825
16.1474
63.5174
385.109
119.483
232.3
145.71
168.64
-1212.35
-120.304
49.4989
444.648
-389.242
58.8519
92.2036
156.557
-935.765
-33.2762
60.5573
414.028
-230.12
136.473
123.492
169.908
-1467.28
-227.462
14.4745
482.84
-532.648
-17.6492
60.0198
146.377
-1659.17
-333.991
-34.5663
476.43
-665.053
-100.644
17.4715
126.445
34.4676
15.1568
7.75964
4.52338
3.24735
45.3734
23.2409
12.7483
7.64419
5.53343
82.345
35.2889
18.0198
10.561
7.64266
102.745
52.104
28.6341
17.268
12.5493
109.255
44.2193
22.2973
13.0572
9.47722
138.24
69.1654
38.12
23.1299
16.8773
72.4673
35.4281
19.4481
11.826
8.63692
51.5087
20.7998
10.4374
6.16194
4.45451
109.681
45.2652
23.29
13.8208
10.0054
52.3654
18.5333
8.97331
5.20634
3.7386
115.567
52.6093
28.3327
17.0792
12.444
49.4586
18.4363
9.20388
5.38514
3.86337
84.4661
29.5989
14.0978
8.15435
5.86478
49.6438
16.564
7.86339
4.5617
3.28447
73.5524
19.0932
7.31086
3.85075
2.66554
40.6429
9.03306
3.15162
1.59124
1.08023
28.7612
11.443
5.63672
3.21425
2.28539
20.7695
9.06654
4.67068
2.70131
1.92756
70.2588
28.7139
14.5113
8.39936
6.02923
53.6327
23.8734
12.5165
7.31
5.23799
98.6037
35.4297
17.1609
9.78616
7.00269
72.7986
32.8881
17.439
10.2239
7.37857
88.6826
40.432
21.8796
13.1233
9.56828
49.4977
25.0255
13.7345
8.15919
5.94971
45.9724
22.2296
12.3185
7.47465
5.45402
-325.432
-451.777
-724.105
-1103.04
-735.335
-1374.49
-197.42
-1101.49
455.814
-154.861
-706.08
-1204.56
248.171
167.541
-1133.46
-1804.25
-1444.3
-2066.32
-625.371
-145.339
-32.7512
-7.23598
-1.8154
-208.87
-94.0738
-13.3034
-3.52279
-1.5318
-1920.77
-444.336
-100.47
-22.0876
-5.5487
-498.378
-134.234
-32.5826
-6.85109
-1.84305
-3226.65
-747.947
-169.562
-37.397
-9.37373
-790.955
-227.321
-55.0342
-12.7427
-3.19755
-4328.36
-1006.24
-229.034
-50.6634
-12.7133
-917.776
-285.351
-71.3241
-16.7045
-4.1832
-5405.35
-1269
-290.826
-64.6512
-16.29
-1009.76
-345.773
-89.0116
-21.1247
-5.35256
-6401.77
-1549.17
-359.937
-80.6872
-20.4202
-1564.76
-480.199
-118.723
-27.2851
-6.83627
-5961.37
-1437.53
-332.538
-74.2381
-18.7294
-1214.59
-406.818
-103.68
-24.3056
-6.09791
-6602.59
-1600.16
-372.487
-83.6307
-21.1971
-1773.64
-526.586
-128.267
-29.0676
-7.26396
-6880.76
-1653.5
-385.434
-86.4976
-21.9108
-1840.12
-548.057
-134.689
-28.3607
-7.49871
-508.319
-6949.19
-6341.17
-2265.53
1648.46
2807.48
7822.11
11432.6
1769.73
8399.71
-1630.2
2599.07
2506.04
4949.57
9347.18
13228.1
14135.6
17742.2
5771.94
7474.86
-19851.2
-14351.7
-4749.36
-3714.33
-2669.14
-3811.53
-3554.57
-12214
-11680.1
-9972.56
-10792.9
-8909.71
-6386.63
-8325.12
-5518.79
-4674.63
-5681.99
-3901.54
-19786.6
-10295.9
-3642.55
-6212.44
-8431.83
-5887.62
-6425.7
-4780.93
-2907.35
-4111.45
-4368.77
-4723.57
-19524.4
-12809.9
-12175.8
-8798.51
-8741.18
-9183.37
-3947.49
-5205.61
-6606.55
-14161.2
-12275.9
-10345.2
-9598.95
-8283.68
-9325.66
-6395.17
-4976.33
-3832.6
-1978.31
-4190.2
-3471.55
-2598.91
-1617.88
-553.109
-3315.5
-2773.76
-2085.5
-1294.99
-439.663
-2369.31
-1968.2
-1468.43
-905.73
-306.229
-3406.72
-2851.44
-2141.8
-1326.95
-449.455
-3152.9
-2619.58
-1957.67
-1210.92
-410.509
-7851.49
-6019.66
-4734.02
-4410.92
-4783.09
-6382.65
-4698.63
-3358.36
-2799.88
-1963.03
-6225.21
-3739.24
-2595.35
-1814.34
-874.363
-5543.59
-3736.22
-2489.86
-1818.89
-1076.7
-4160.23
-2597.51
-1619.48
-1125.62
-553.071
-5051.64
-3769.8
-2601.98
-1554.52
-534.841
-5663.92
-3635.95
-2377.22
-1424.71
-533.633
-3622.02
-2163.93
-1296.74
-702.676
-237.386
-3849.38
-2968.39
-2088.1
-1248.28
-421.016
-4532.87
-3381.03
-2303.54
-1341.37
-445.438
-3247.29
-2524.78
-1781.17
-1060.65
-354.367
-13092.1
-9990.41
-8092.01
-7227.18
-6909.95
-7579.12
-5491.58
-4021.73
-2734.7
-1233.33
-3029.11
-2368.05
-1694.81
-1033.12
-355.98
-5257.55
-4196.51
-3070.5
-1910.48
-670.234
-6905.3
-5417.67
-3985.87
-2565.21
-971.697
-5006.25
-4029.19
-2983.19
-1881.25
-667.468
-5557.42
-4534.3
-3376.91
-2119.47
-739.604
-4156.59
-3394.28
-2514.34
-1559.37
-534.789
-2505.11
-2016.61
-1464.72
-888.567
-298.83
-3617.19
-2978.31
-2207.59
-1357.99
-459.424
-3713.65
-2956.19
-2136.01
-1299.16
-440.906
-4087.25
-3317.29
-2440.32
-1503.74
-513.529
-13586.8
-11272.3
-9437.4
-8439.33
-7382.2
-8894.85
-6372.87
-4915.28
-3653.88
-1867.74
-8982.27
-7118.15
-5428.03
-4021.65
-1959.71
-6917.06
-5247.31
-3950.83
-2691.78
-1099.1
-7286.64
-5822.99
-4347.83
-2821.53
-1060.95
-7162.29
-5390.9
-4032.68
-2735.25
-1103.36
-3385.39
-2734.66
-2017.31
-1257.65
-437.626
-4583.87
-3783.53
-2817.07
-1742.83
-592.453
-5680.49
-4603.43
-3407.84
-2129.96
-741.097
-5592.78
-11387.1
-11867.7
-32498.3
-11697.7
-43499.2
-6380.86
-15479.3
-11710
-9038.69
-19449.8
-16212.9
-11678.4
-10981.9
-21820.1
-17266.6
-4116.71
-3058.51
-7964.99
-5473.59
-9225.82
-6952.13
-24746.8
-18285.6
-15204.9
-11538.8
-15627.8
-9289.89
-1195.08
-3759.37
-40487.5
-53015.6
-24477.9
-30951.3
-53514.3
-68755.5
-26347.2
-31009.3
-30168.5
-41626.9
-24581.9
-33556.8
-16311.8
-24617.9
-1966.13
-518.549
-3452.52
-1177.91
-6688.08
-2985.97
-13564.6
-4898.03
-2942.25
-1669.48
-7360.86
-2314.08
-15228.2
-4784.15
-19800.3
-6668.87
-16521.8
-8557.07
-19042.3
-11313.2
-15046.9
-10761.9
-16892.9
-13081.1
-15211.1
-8898.67
-12036.1
-6216.08
-21551.5
-13734.7
-22458.4
-14434.6
-19769.2
-14988.1
-20876.3
-15637
-17908.8
-11227.2
-19162
-11979.1
-16658
-7356.3
-7253.95
-9575.05
-14905.9
-7520.18
-5436.27
-9411.66
-18432.8
-7536.93
-8825.53
-9831.35
-19599.1
-7788.98
-9939.52
-10403.9
-1131.07
-1017.94
-274.273
-1209.87
-4594.97
-4753.2
-2876.48
-5709.83
-2577.01
-3212.27
-4470.47
-8451.25
-12104.7
-9684.45
-9384.26
-11722.2
-7736.22
-7624.11
-8167.66
-6909.87
-13574.1
-11813.9
-11551.4
-9692.15
-6746.38
-5797.99
-12729.1
-1098.58
-823.95
-614.281
-688.877
-4272.34
-3391.78
-3620.7
-3190.76
-623.061
511.381
-4279.92
-3361.59
-10160.5
-10788.3
-9501.81
-8696.83
-7092.86
-5151.84
-9290.67
-7397.16
-8336.95
-6530.36
-11576
-11767.6
-9912.89
-7736.03
-7346.62
-4975.58
-6486.24
-4096.34
-9705.11
-5898.66
-9311.91
-5062.15
-8307.14
-9454.88
-13068.5
-17373
-13785
-20125.3
-6374.14
-7561.63
-7730.31
-2866.27
-7659.54
-14985.5
-7396.83
-16157.8
-13624.7
-24968.6
-13908.8
-26369.4
-5688.91
-12823.9
-5330.4
-13791.1
-7728.1
-6067.74
-11204.5
-4527.96
-7433.44
-1783.01
-9639.22
-1214.1
-7684.11
-9185
-11850.1
-5507.38
-6460.32
-10915.6
-10539.2
-7229.47
-811.042
-753.526
-552.661
-638.299
-2586.23
-1891.6
-2345.33
-2134.21
1075.95
583.348
-2747.48
-3048.51
-10672.9
-10119.1
-7706.2
-6645.51
-4097.08
-3448.44
-5803.06
-4785.7
-5491.51
-4007.93
-18297
-16004.9
-7992.21
-6790.97
-6079.65
-4616.58
-5035.43
-3226.52
-5380.17
-2330.83
-5605.06
-9222.92
-4910.89
-9347.43
-8345.53
-10421.4
-9373.7
-12766.3
-990.468
-718.076
-769.405
-654.131
-3635.71
-2593.37
-2975.79
-1668.3
-1385.4
-1661.52
-8337.88
-8952.63
-4687.72
-4236.21
-9355.91
-9692.43
-14399.8
-16552.4
372.717
3945.78
-7363.56
-7142.34
-7075.2
-5582.24
-1069.67
-966.917
-1163.98
-959.082
-1727.97
-1167.62
-597.623
-503.46
-8131.85
-3762.73
-6912.33
-3154.97
-9309.46
-3671.88
-11051.9
-3899
-5387.53
-10257
-6993.38
-10740.3
-8682.31
-11680.5
-11407.3
-12664.1
-5228.31
-9220.63
-4729.8
-9182.65
-8178.39
-10835.3
-9404.74
-11220.7
-13199.5
-13310.9
-14499.4
-13843.3
-5599.19
-9062.63
-6181.99
-9284.41
-471.146
-2190.94
-7865.86
-5354.52
-450.563
-2268.47
-7794.35
-5127.79
-778.208
-2203.73
-7847.88
-5521.29
-969.561
-2128.05
-7726.81
-5441.76
-1070.55
-1173.13
-1003.69
-1084.29
-2080.27
-2125.02
-1420.25
-1537.54
-8374.89
-7694.73
-3891.62
-3915.55
-3724.94
-5202.84
-4028.22
-260.515
-1797.09
-1293.47
-1389.59
-3601.95
2684.55
-841.466
-13808
-11726.7
-10599.5
-9221.64
-5754.67
-1178.66
-1060.97
-1222.25
-1519.89
-2102.73
-1648.69
-1975.77
-2627.12
-8035.93
-7917.8
-4339.32
-5612.09
-5033
-6702.22
-3155.04
-5082.5
-4830.15
-5267.26
-1128.79
-1501.31
-2878.82
-4307.21
-9667.84
-7938.01
-7617.07
-5591.76
-6647.97
-4744.19
-5897.16
-4289.12
-4324.29
-4753.6
-8331.14
-8225.64
-11229.2
-7244.09
-10419
-11178.6
-13052.5
-10983.4
-9417.33
-5842.06
-6925.91
-6912.17
-12231
-5952.53
-13031.6
-5996.82
-13942.4
-10838.7
-14706.2
-11063.7
-10258.4
-4533.92
-10894.8
-4581.92
-7723.16
-6066.75
-6176.5
-8449.84
-6598.84
-6998.2
-6057.85
-8701.23
-7979.83
-5636.29
-6243.77
-9073.75
-8997.44
-5575.25
-7120.39
-8787.04
-853.133
-735.721
-1097.29
-807.849
-1409.04
-1679.04
-1609.11
-1182.99
-7730.72
-6769.22
-3747.68
-1671.84
-7869.65
-7465.37
-6119.35
-5502.47
-5103.23
-4378.72
-1835.2
-1895.03
-4101.66
-1856.85
-8636.78
-7401.46
-4881.75
-3879.48
-3785.76
-2402.16
-2785.52
-1236.4
-4269.33
-103.09
-232.265
-106.557
-36.7773
22.9835
-217.682
-135.905
-47.4554
13.8927
-627.89
-277.832
-10.1822
174.212
-565.872
-326.663
-41.9166
115.513
-1028.61
-411.903
31.4178
399.124
-1013.41
-496.264
-167.574
18.1481
-697.833
-334.678
-164.656
-52.833
-536.088
-220.511
-19.4786
113.924
-1538.86
-540.346
-129.762
139.783
-1829.22
-521.353
-97.9947
505.291
-1476.51
-519.025
-85.6029
267.143
-1660.99
-469.155
-126.156
458.791
-1438.97
-497.881
-40.7146
290.559
-1895.71
-537.2
-80.0824
588.404
-1303.6
-421.71
43.4382
419.561
-1876.02
-518.349
-53.1898
636.026
-215.692
-87.4976
-13.3682
71.4547
-185.633
-66.6634
-27.984
67.9953
-556.433
-228.7
-20.121
185.777
-466.982
-175.669
-73.3257
176.106
-1099.46
-382.855
-9.72408
399.494
-999.269
-333.374
-85.1094
364.315
-1222.1
-452.34
-84.3964
296.776
-923.031
-315.734
-114.212
406.095
-1673.5
-468.64
-110.653
639.793
-134.158
-49.9693
-15.2533
44.5881
-62.0165
-34.9468
-15.7514
0.157481
-404.096
-144.494
-63.3855
105.903
-204.729
-104.526
-56.2288
-7.81017
-717.458
-240.454
-96.5028
190.988
-415.989
-183.221
-88.0735
-6.59607
-1091.29
-346.396
-122.003
289.63
-727.366
-270.05
-117.09
-1.47733
-1437.35
-416.019
-192.17
245.535
-980.414
-326.285
-155.374
-21.6294
-1921.16
-539.117
-205.472
305.807
-970.974
-303.111
-127.736
12.3831
-1851.73
-529.027
-234.319
253.625
-1074.3
-337.741
-149.61
-9.92419
-1896.35
-494.352
-151.244
395.106
-869.986
-244.374
-79.5777
58.8471
-1799.88
-424.127
-91.1916
446.367
-770.674
-174.402
-28.479
97.8663
-5.77585
-10.006
-7.19856
-4.78056
-3.59738
-26.588
-19.6462
-12.4347
-7.97277
-5.94871
-11.0974
-22.8161
-16.447
-10.8643
-8.11703
-57.5856
-43.5083
-27.5463
-17.5872
-13.0845
-5.42385
-27.426
-20.1728
-13.3391
-9.9398
-75.3187
-57.2375
-36.0016
-22.839
-16.9303
-36.6271
-28.6963
-18.1188
-11.4722
-8.49959
-4.44011
-12.1565
-8.90464
-5.85287
-4.40009
-16.3905
-29.8746
-20.8466
-13.5619
-10.135
5.24262
-9.97592
-7.81644
-5.21429
-3.92631
-45.0779
-41.368
-26.5209
-16.8902
-12.5279
-0.755284
-11.5417
-8.38032
-5.51559
-4.15139
11.8259
-14.1708
-11.6984
-7.86889
-5.92866
8.60321
-7.97935
-6.55398
-4.38587
-3.30191
40.3119
-1.02379
-4.5975
-3.58238
-2.84306
26.8881
0.649
-1.81774
-1.51535
-1.22888
0.0985666
-7.01388
-5.36142
-3.6257
-2.74558
-5.85306
-6.94796
-4.705
-3.10183
-2.33563
-8.03462
-19.868
-14.1453
-9.37479
-7.03541
-20.6644
-19.8002
-12.8959
-8.39431
-6.29463
9.44808
-21.4025
-16.501
-11.1154
-8.36617
-34.4645
-28.987
-18.4163
-11.9183
-8.88034
-41.6089
-34.4915
-21.5853
-13.7423
-10.1688
-38.9408
-24.3915
-14.7241
-9.39367
-6.93625
-29.4084
-20.0097
-12.0778
-7.59279
-5.61482
-58.0569
-202.318
-99.8797
-515.323
-35.664
-709.412
261.417
-635.095
534.767
-79.1881
-762.12
-1260.51
132.114
-43.1254
-1161.2
-1821.87
-1452
-2069.99
-598.102
-141.449
-32.0475
-7.09527
-1.7814
-158.778
-87.0179
-12.1526
-3.34328
-1.49646
-1848.28
-433.436
-98.4488
-21.6788
-5.44916
-381.183
-116.323
-29.8264
-6.43264
-1.77027
-3115.81
-730.19
-166.2
-36.7157
-9.2089
-660.083
-206.479
-51.7006
-12.2054
-3.09962
-4200.83
-983.903
-224.651
-49.7658
-12.4971
-830.358
-269.656
-68.5672
-16.2194
-4.08919
-5292.53
-1246.05
-285.992
-63.6303
-16.0416
-992.482
-338.877
-87.3653
-20.7772
-5.27692
-6352.28
-1535.69
-356.654
-79.9404
-20.2312
-1573.59
-480.428
-118.514
-27.2057
-6.81243
-5888.31
-1418.63
-328.163
-73.2759
-18.492
-1232.24
-405.888
-103.013
-24.118
-6.05162
-6573.78
-1592.18
-370.487
-83.1667
-21.0778
-1775.76
-526.49
-128.15
-29.03
-7.25295
-6871.19
-1650.86
-384.762
-86.3394
-21.8699
-1840.16
-547.93
-134.64
-28.3515
-7.49558
-521.044
-6869.16
-6074.51
-2204.67
-1570.92
-931.287
-3693.19
-2686.49
-6418.82
-6001.84
-3056.89
-2303.57
-386.284
-591.995
-1016.18
-1649.33
-2468.88
-3397.03
-278.948
-599.503
-1246.68
-2169.27
-3263.51
-4373.46
-293.699
-135.365
-504.574
-345.238
-929.344
-771.552
-1550.53
-1440.15
-2226.42
-2142.11
-2911.87
-2631.21
-4200.12
-4732.97
-5135.96
-7633.1
-8537.28
-9400.97
-5294.05
-5809.25
-5768.7
-5254.65
-4493.55
-3925.82
-348.95
-295.597
-224.493
-140.144
-47.6332
-534.423
-452.362
-343.288
-214.181
-72.7755
-916.647
-775.206
-587.801
-366.523
-124.506
-1486.12
-1255.27
-950.783
-592.445
-201.189
-2220.71
-1872.34
-1416.06
-881.628
-299.314
-3046.78
-2561.45
-1933.19
-1202.56
-408.283
-251.855
-213.245
-161.874
-101.014
-34.3234
-540.911
-457.592
-347.071
-216.456
-73.5324
-1124
-950.066
-720.068
-448.872
-152.46
-1953.57
-1649.25
-1248.72
-777.963
-264.183
-2933.82
-2472.32
-1869.32
-1163.82
-395.17
-3921.1
-3295.74
-2487.53
-1547.88
-525.695
-265.428
-224.912
-170.858
-106.687
-36.2717
-122.341
-103.671
-78.7577
-49.1787
-16.7202
-455.697
-385.876
-292.939
-182.819
-62.133
-311.842
-264.112
-200.535
-125.165
-42.5404
-838.722
-709.657
-538.334
-335.778
-114.082
-696.46
-589.429
-447.223
-278.983
-94.7887
-1397.81
-1181.27
-895.083
-557.847
-189.452
-1298.45
-1097.42
-831.561
-518.229
-175.985
-2003.66
-1690.08
-1278.48
-795.919
-270.172
-1927.82
-1625.96
-1229.64
-765.221
-259.674
-2612.21
-2195.99
-1656.64
-1029.78
-349.405
-2360.15
-1983.16
-1494.69
-928.023
-314.596
-3748.73
-3137.55
-2361.73
-1468.84
-499.342
-4187.67
-3479.89
-2611.44
-1627.53
-556.219
-4470.97
-3671.91
-2748.15
-1727.2
-600.352
-6436.38
-5188.86
-3891.86
-2513.44
-922.523
-6801.63
-5335.57
-4037.71
-2747.16
-1132.9
-7169.11
-5519.73
-4208.12
-2975.83
-1329.58
-4727.39
-3959.06
-2982.13
-1855.69
-630.974
-5155.8
-4296.12
-3229.21
-2012.31
-686.511
-5070.48
-4194.72
-3147.24
-1970.02
-677.712
-4541.15
-3715.62
-2786.21
-1764.6
-620.276
-3755.31
-3014.26
-2265.9
-1475.53
-548.015
-3161.69
-2486.78
-1876.26
-1260.91
-497.394
-406.48
-654.18
-1124.95
-1811.24
-2693.2
-3673.57
-307.111
-686.231
-1396.52
-2383.93
-3531.85
-4659.87
-312.997
-151.766
-564.354
-397.294
-1035.67
-868.022
-1713.55
-1594.62
-2466.27
-2412.73
-3224.98
-3042.41
-4490.83
-5006.07
-5388.69
-7790.18
-8608.04
-9422.98
-5541.52
-5961.71
-5803.26
-5190.96
-4397.46
-3881.43
-367.303
-311.259
-236.479
-147.673
-50.2011
-590.975
-500.66
-380.284
-237.44
-80.7127
-1015.69
-859.943
-652.836
-407.474
-138.492
-1633.93
-1382.14
-1048.48
-654.13
-222.289
-2426.29
-2049.6
-1553.22
-968.568
-329.12
-3301.93
-2783.24
-2106.23
-1312.99
-446.293
-277.451
-235.081
-178.579
-111.506
-37.9023
-619.758
-524.911
-398.622
-248.857
-84.5872
-1260.44
-1066.79
-809.645
-505.274
-171.722
-2149.54
-1817.45
-1378.24
-859.747
-292.16
-3179.78
-2684.46
-2033.51
-1267.94
-430.871
-4185.36
-3525.47
-2666.79
-1662.31
-565.092
-282.941
-239.842
-182.273
-113.853
-38.7146
-137.223
-116.348
-88.4416
-55.2536
-18.7912
-510.024
-432.235
-328.419
-205.109
-69.7369
-359.117
-304.422
-231.361
-144.518
-49.1396
-935.494
-792.395
-601.786
-375.708
-127.714
-784.238
-664.457
-504.745
-315.171
-107.143
-1546.62
-1308.97
-993.396
-619.91
-210.68
-1439.62
-1218.73
-925.09
-577.341
-196.216
-2223.4
-1879.48
-1424.95
-888.728
-301.983
-2175.89
-1839.91
-1395.22
-870.2
-295.669
-2901.06
-2447.06
-1852.47
-1154.71
-392.382
-2738.75
-2311.44
-1750.12
-1090.66
-370.486
-4020.23
-3376.84
-2551.04
-1591.05
-541.703
-4448.27
-3715.01
-2801.72
-1752.71
-600.161
-4720.82
-3905.18
-2943.05
-1859.02
-647.663
-6615.81
-5375.77
-4063.36
-2639.63
-971.765
-6905.19
-5454.89
-4156.66
-2843.27
-1175.77
-7207.24
-5565.31
-4255.17
-3015.61
-1348.33
-4958.6
-4162.99
-3143.61
-1960.04
-667.164
-5302.92
-4430.52
-3339.31
-2085.47
-712.332
-5112.08
-4240.46
-3190.69
-2002.17
-689.854
-4494.27
-3686.11
-2772.44
-1761.48
-620.854
-3677.59
-2956.07
-2228.5
-1457.26
-543.853
-3125.32
-2458.83
-1857.66
-1251.48
-495.171
-19791.4
-14408.2
-5131.21
-4125.1
-3144.54
-4406.06
-4049.29
-12998.8
-14618.3
-11562.7
-13343.6
-7918.29
-11295.7
-6056.47
-6322.56
-4618.24
-20479.9
-11316
-4361.97
-7136.48
-9302.48
-6404.55
-7094.22
-5372.24
-3308.37
-4787.35
-5312.71
-5448.91
-19412.5
-13010.2
-12837
-9197.3
-9193.65
-9722.84
-4631.86
-5858.65
-7253.14
-14178.2
-12353.4
-10463.1
-9759.18
-8434.57
-9420.91
-6494.03
-5072.37
-3912.94
-2013.48
-4556.68
-3804.02
-2869.18
-1796.26
-615.841
-3698.25
-3110.22
-2350.9
-1465.85
-498.764
-2816.32
-2365.04
-1784.34
-1110.5
-377.318
-3958.74
-3334.8
-2521.61
-1570.68
-533.591
-3620.04
-3036.01
-2290.32
-1427.05
-485.642
-9557.66
-7992.12
-6626.68
-6003.64
-5947.66
-10921.8
-9459.82
-7686.92
-6153.05
-3645.56
-8344.91
-5878.35
-4443.05
-3106.46
-1348.88
-9943.52
-8240.46
-6478.92
-4762.31
-2299.07
-6702.54
-5382.56
-3977.38
-2488.06
-867.482
-8872.6
-6624.09
-4847.21
-3082.02
-1128.44
-5251.29
-4289.83
-3188.63
-1985.07
-681.966
-5460.82
-4447.32
-3300.37
-2054.9
-706.867
-4038.81
-3320.36
-2473.33
-1536.17
-524.703
-14462.9
-11622.9
-9716.99
-8631.67
-7906.51
-8814.16
-6766.23
-5158.38
-3552.63
-1560.72
-3773.55
-3083.06
-2299.77
-1442.61
-502.107
-6196.55
-5089.66
-3823.43
-2420.87
-853.607
-7852.77
-6361.71
-4811.22
-3144.86
-1190.28
-5540.81
-4545.97
-3425.78
-2185.98
-778.638
-6212.93
-5140.81
-3878.71
-2455.85
-859.601
-4736.88
-3931.52
-2958.12
-1855.46
-639.593
-2925.2
-2427.73
-1818.34
-1130.16
-385.09
-4265.75
-3566.27
-2684.48
-1671.48
-569.155
-4657.18
-3840.46
-2871.2
-1790.77
-614.799
-4803.13
-3982.79
-2991.2
-1871.38
-643.539
-13727.6
-11569.3
-9832.86
-8892.81
-7838.33
-9188.86
-6680.74
-5208.87
-3890.49
-1974.98
-9918.28
-8113.7
-6370.15
-4758.86
-2296.17
-7381.48
-5728.21
-4388.4
-3015.4
-1225.44
-7790.17
-6336.66
-4808.2
-3153.08
-1188.94
-7800.41
-6041.16
-4623.69
-3169.62
-1275.74
-4053.92
-3350.28
-2523.57
-1594.73
-557.099
-5209.87
-4350.46
-3276.61
-2044.91
-698.227
-6333.15
-5222.83
-3930.42
-2484.83
-868.541
-481.474
-1371.86
-2183.27
-2951.01
-3681.24
-4363.92
-2635.54
-7079.8
-6724.23
-2579.09
-8999.14
-7545.7
-8995.15
-9954.47
-2389.98
-1543.16
-5551.23
-3210.85
-10558.1
-7485.19
233.753
-2137.98
-5900.43
-5525.34
-2076.82
-7655.97
-6153.55
-7543.61
-8489.8
-1978.57
-910.888
-4769.19
-1676.88
-8749.81
-4478.64
1556.63
-1561.77
-4487.13
-4188.87
-1521.73
-6048.42
-3697.14
-6118.31
-6772.31
-1492.25
-829.377
-3378.28
-1744.19
-6984.71
-1783.71
1695.25
-1150.04
-3472.89
-3308.84
-1161.59
-4628.97
-2251.18
-5082.32
-5975.41
-1122.98
-871.508
-2473.49
-1763.17
-6146.32
-366.211
1274.67
-929.378
-2945.18
-2851.15
-979.614
-3719.95
-1866.72
-4558.41
-5798.55
-888.926
-949.364
-1779.39
-1694.11
-5362.64
-151.009
140.713
-820.909
-2628.58
-2618.62
-887.476
-3445.07
-2127.6
-4222.91
-5544.3
-686.622
-744.992
-1470.59
-1658.61
-5276.06
-954.226
-472.182
-1390.83
-3401.2
-4965.96
-1920.44
-5510.19
-9630.68
-7280.67
-10491.3
-1013.59
-719.254
-3895.51
-2413.62
-1178.68
-9244.77
-4841.01
-1296.2
-3176.77
-4371.19
-1671.69
-5103.87
-8724.74
-6584.38
-8953.2
-1038.67
-638.899
-4041.16
-2290.24
-358.827
-9092.02
-3657.67
-1144.07
-2813.52
-3594.6
-1348.14
-4663.46
-7835.12
-5623.43
-7907.95
-926.343
-734.587
-3473.32
-2392.87
-575.865
-7382.09
-3509.39
-994.618
-2548.11
-2997.81
-1100.62
-4370.47
-7149.49
-5027.5
-7210.57
-855.083
-744.847
-3229.8
-2497.79
-377.808
-6875.7
-3552.11
-903.012
-2301.25
-2672.64
-966.877
-3984.62
-6587.95
-4603
-6872.04
-804.511
-802.036
-2949.43
-2708.09
-519.79
-6622.14
-3631.06
-841.079
-2060.27
-2484.51
-892.063
-3687.07
-6512.23
-4285.76
-6655.94
-837.031
-929.125
-2635.3
-2579.7
-772.189
-6782.45
-4021.77
6040.44
7627.01
15815.1
23115.8
23530.4
40552.7
18075.5
46034.4
14731.9
32348
22055.7
33482.7
19769.1
25979.8
7468.25
8467.7
14821.9
16965.6
19143.4
18985
15072.2
18621.5
22214.2
19931.1
4980.27
3775.43
6112.06
4122.46
12515.8
9973.67
21424
15495.8
16540.1
17215.6
18371.7
17521.1
6439
5027.24
39221.6
52505.9
25331.6
31102.2
52759.4
68455.1
27284
31236.8
29070.8
41066.8
25359.1
33619.8
14844
23926.1
2684.42
919.964
2754.64
1004.03
8561.67
3453.52
11791.5
4336.57
8378.25
3213.48
8910.03
2856.03
15209.7
4838.81
19626.8
6621.11
24027.2
11925
21995.5
13036.1
22533.5
14572
19818.3
14904.7
17288.5
10268.5
17288.1
8805.98
22694.6
14511.4
22744.7
14646.7
20933.7
15780.2
21187.2
15851.9
18676
11861.3
19344.5
12154
17658.9
7645.55
8155.56
9931.68
17732.3
8357.69
7113.58
10062.4
18704.8
7611.73
9246.45
10007
19633.8
7796.32
10058.4
10455.4
3464.96
3742.12
1188.73
2275.28
10747.2
11369.8
4146.33
7359.18
13818
15357.5
6658.1
11322.6
12287.2
1076.54
13587.6
16753.8
9095.75
736.497
7451.49
12210.9
19674.3
13654.9
9893.95
12016.7
10504
9058.58
14211.2
3233.76
2639.02
1827.31
1836.67
10012.3
8447.96
6067.14
5753.14
12466.7
10559.9
7852.88
7045.63
5854.1
7450.88
12085.8
12524.1
14061.8
12793.5
15850.4
13799.8
10721.5
9023.59
9066.4
9552.77
11969.3
9456.78
10909.2
7950.35
9441.37
6517.58
11000.2
7213.86
10251.9
4798.73
8801.33
9543.1
12574.3
16406.5
13833
20141.1
7003.9
7783.56
9081.11
2916.41
7842.96
15120.2
7440.71
16210.3
13695.5
24862.8
13934.7
26386
5929.16
12990.4
5388.15
13843.2
8192.39
6199.53
11395.5
4519.68
8433.89
1688.84
9937.07
773.363
7870.66
9287.89
11938
5520.77
6510
10950.2
10563.7
7241.55
2068.16
1839.64
1673.34
1527.46
1413.08
1277.78
6918.71
5675.31
4911.26
4453.14
3579.46
3101.75
8452.48
7300.4
6747.65
5327.15
4355.45
4119.05
6556.22
5807.9
5667.78
10931.9
8326.71
7018.75
10294.8
7624.28
6191.35
10808.4
8547.47
7439.12
6709.87
4433.26
3462.85
15730.1
13628.4
11811.4
10105.3
8422.16
7001.66
8971.24
6985
5583.03
7529.76
5448.44
4191.58
7738.63
4316.45
2438.43
10341.1
14028.3
8170.33
10581.3
11147.1
16386.5
9954.14
14507.3
76.3095
632.771
-425.509
57.8158
2957.8
3420.13
1223.88
734.052
657.11
2367.46
9372.73
13691.1
6631.46
3637.51
9881.03
9812.59
15236.6
16786.3
-619.015
-4138.8
7548.26
7121.76
7169.81
5533.33
893.066
493.879
560.087
229.554
2032.08
206.326
-302.123
-848.087
9211.92
2387.94
6228.17
1621.6
9018.32
2751.13
10925.3
3521.95
8797.09
11907
8139.99
11617.5
14153.9
14994.6
13513.7
14203.9
5628.93
9414.72
6496.58
9350.36
8643.61
11195.1
9540.53
11314.7
14084
13954.4
14750.6
14016.4
5686.84
9114.83
6193.59
9288.11
-137.059
1359.22
7438.11
4693.54
-705.626
943.657
6890.53
4148.73
323.36
1617.65
7609.1
5115.91
781.456
1891.64
7654.44
5301.7
-662.623
-759.228
152.224
7.06597
-2915.89
-2952.71
-216.907
-373.664
-614.12
-2011.53
1686.23
1030.57
-10269.7
-9569.63
-5590.74
-4292.5
-441.156
-10491.6
-10809
-4336.08
-6411.27
-837.543
10233.9
8034
7156.91
6742.63
4128.24
-785.105
-724.78
-56.7841
40.8557
-2565.49
-2530.5
-86.5499
160.002
-2611.71
-3168.99
697.742
1026.39
-5136.82
-2334.14
-8179.84
-5137.93
-3667.16
-2791.07
-4141.86
-3605.22
454.108
1406.9
3763.27
2375.68
1028.82
-1032.82
1002.52
-770.484
1726.7
384.909
2143.17
2454.18
5224.23
4782.01
9943.9
6001.49
8112.51
8175.8
12318.9
9985.21
7864.55
4637.6
3925.25
3905.72
11725.2
5178.44
12899.9
5808.29
13741.1
10190.8
14665.9
10924.2
9542.18
3777.67
10692.1
4380.18
6245.75
4974.44
4867.92
7221.01
4047.93
4573.51
4164.28
6696.27
7206.83
4921.66
5499.95
8289.99
8755.13
5350.22
6879.14
8562.42
-743.595
-779.095
-875.208
-47.8299
-288.783
-319.569
-2814.42
-3007.97
-3013.43
-194.821
-824.353
-833.757
-3589.76
-4014.55
-4124.48
593.993
-813.743
-1104.35
-1254.43
-1072.33
-770.273
-3790.86
-3877.89
-3619.11
-3106.1
-3514.92
-3459.79
-3843.84
-4140.98
-4044.81
1355.43
-362.531
-493.469
3453.4
1965.36
1038.94
-1024.05
-2155.03
-2759.34
-985.748
-2435.91
-3068.7
-435.975
-2010.34
-2464.5
2335.81
-511.736
-850.41
-24.1392
-35.642
-46.4133
-70.1132
-251.202
-141.941
-118.568
-114.569
-11.4801
-78.8991
-183.773
-285.092
-435.143
-280.765
-317.407
-341.78
221.465
-32.1343
-262.769
-506.652
-165.315
-231.498
-298.175
-339.456
-40.0931
-139.469
-143.099
-140.551
212.415
5.52952
-120.985
-204.974
943.965
192.842
-97.3013
-305.202
1478.75
343.397
-1.34311
-526.226
653.884
78.7801
-180.88
-452.008
1214.26
260.383
17.4389
-459.262
1007.2
231.796
-124.849