/*--------------------------------*- C++ -*----------------------------------*\
  =========                 |
  \\      /  F ield         | OpenFOAM: The Open Source CFD Toolbox
   \\    /   O peration     | Website:  https://openfoam.org
    \\  /    A nd           | Version:  11
     \\/     M anipulation  |
\*---------------------------------------------------------------------------*/
FoamFile
{
    format      ascii;
    class       volScalarField;
    location    "2.1";
    object      T;
}
// * * * * * * * * * * * * * * * * * * * * * * * * * * * * * * * * * * * * * //

dimensions      [0 0 0 1 0 0 0];

internalField   nonuniform List<scalar> 
5712
(
538.886
555.063
528.496
548.052
513.459
538.407
487.429
517.051
487.015
510.464
510.264
533.208
524.321
544.176
533.543
551.239
504.855
484.914
524.613
495.76
476.982
456.159
496.755
465.752
546.955
554.489
559.685
563.828
536.811
546.131
553.478
559.355
537.251
522.159
515.037
505.119
533.752
547.636
543.711
543.4
505.862
509.997
520.315
519.438
475.586
479.023
550.698
552.825
525.746
531.801
559.724
562.42
559.563
567.622
567
570.729
552.838
564.959
563.628
569.372
539.374
559.195
550.589
564.641
558.929
567.884
562.167
569.028
470.778
458.95
478.083
461.385
439.236
428.698
446.968
431.429
505.348
489.828
498.555
487.26
483.337
462.565
484.753
462.383
452.297
432.871
453.76
432.833
510.231
491.041
511.61
490.946
529.278
556.348
517.418
547.943
522.932
552.553
514.194
544.869
533.812
558.544
518.985
549.568
535.25
559.35
519.108
550.303
553.292
540.835
564.065
554.899
543.682
531.319
560.194
549.839
529.207
517.717
553.411
542.291
456.178
419.349
487.941
513.686
544.978
413.78
450.529
482.302
506.631
535.452
419.142
452.724
482.867
509.479
538.799
518.681
499.595
523.466
505.219
512.864
495.153
521.521
503.105
503.643
487.114
518.473
500.307
403.774
391.463
441.621
428.952
472.035
458.284
495.469
480.385
517.1
500.209
407.95
394.496
442.958
432.489
473.418
462.374
499.022
486.092
520.49
505.844
446.626
441.286
445.063
440.051
412.348
393.705
412.275
392.792
475.181
473.428
476.818
473.8
442.628
438.917
442.557
439.066
411.487
392.724
411.616
393.001
472.446
472.297
472.361
472.52
502.895
501.086
525.183
522.615
503.221
499.724
524.664
519.976
501.533
500.802
525.172
523.352
500.203
499.962
524.049
522.33
479.469
464.37
456.651
482.477
466.149
458.135
476.405
461.068
453.024
480.517
463.623
455.194
468.678
453.291
445.162
477.65
459.522
450.41
378.45
369.517
365.31
414.429
401.968
395.367
442.226
426.995
418.51
462.018
445.507
436.82
476.407
456.205
445.844
380.029
368.849
363.477
419.949
406.503
399.298
447.392
430.796
421.402
466.868
446.967
436.001
478.938
455.947
443.792
410.291
401.462
415.961
407.237
441.942
426.772
452.466
434.411
386.03
363.41
387.239
365.388
387.358
366.217
389.234
368.325
388.892
384.934
388.266
382.751
369.649
373.322
411.424
414.298
439.933
442.787
392.236
396.703
392.192
394.939
376.447
379.716
341.382
323.738
346.785
327.141
344.058
324.328
349.36
328.19
348.313
325.114
355.45
330.167
359.402
333.341
361.385
335.316
384.084
374.696
391.628
378.246
409.865
399.617
417.394
402.901
370.931
357.152
363.619
353.631
395.956
380.26
397.87
380.923
422.025
404.697
423.701
405.006
375.078
359.251
377.119
360.105
351.142
327.485
339.986
321.721
344.438
323.408
336.76
319.344
355.248
330.542
341.966
323.282
357.519
332.648
342.879
324.161
324.889
313.712
317.052
309.647
327.174
316.412
317.396
310.409
331.628
322.483
318.376
312.615
365.073
388.569
347.665
334.744
318.293
383.617
360.426
341.125
328.806
314.495
388.284
365.002
346.381
331.843
316.44
304.457
295.898
302.341
294.506
307.515
298.828
303.731
295.986
313.6
304.702
306.452
298.724
373.398
361.544
350.608
339.316
333.528
323.659
321.433
312.066
309.754
301.96
376.864
362.469
354.425
340.891
337.476
325.665
324.251
313.321
311.801
303.21
358.662
340.71
361.831
342.793
381.677
361.938
384.183
362.732
343.703
327.751
340.723
325.49
364.499
344.141
365.251
344.778
385.956
363.192
386.452
363.668
346.39
329.341
347.166
329.928
327.693
314.015
313.489
302.894
326.056
312.272
312.694
302.208
329.139
315.291
314.031
303.144
330.685
316.025
314.959
304.018
287.003
282.747
281.097
281.894
278.507
277.37
290.19
285.453
283.586
283.43
279.866
278.561
296.142
290.913
288.756
285.85
281.651
280.052
349.978
342.399
338.937
329.033
322.686
319.984
314.284
308.436
306.145
302.37
296.195
293.536
287.633
282.64
280.664
348.705
339.038
334.874
328.506
319.943
316.281
314.291
306.628
303.477
301.523
294.695
292.102
286.572
281.871
280.04
309.842
300.675
294.561
289.808
311.351
301.242
294.697
289.739
309.943
300.773
294.677
289.912
311.891
301.539
294.94
289.952
309.922
300.865
294.965
290.258
312.32
301.842
295.335
290.331
313.773
302.596
295.513
290.276
315.012
303.381
295.906
290.474
311.37
301.682
295.462
290.55
309.432
301.258
295.589
291.087
309.498
300.867
295.236
290.687
308.32
300.675
295.332
291.094
312.919
302.453
295.722
290.583
310.364
301.801
295.873
291.259
314.153
303.171
296.106
290.858
311.147
302.311
296.222
291.572
307.394
299.822
294.437
290.069
304.494
298.858
294.288
290.474
307.411
299.869
294.536
290.184
304.726
298.969
294.364
290.555
307.547
299.99
294.74
290.439
305.396
299.26
294.541
290.718
307.37
300.055
294.954
290.8
305.931
299.532
294.762
290.959
307.118
300.125
295.134
291.177
302.132
298.152
294.009
291.2
300.75
297.802
293.91
291.445
302.628
298.339
294.111
291.278
301.299
298.004
294.005
291.508
303.531
298.694
294.278
291.391
302.242
298.367
294.167
291.613
304.626
299.16
294.558
291.588
303.315
298.818
294.398
291.768
305.669
299.7
294.903
291.807
304.213
299.298
294.667
291.955
307.117
300.704
295.463
292.154
305.514
300.304
295.332
292.429
306.44
300.217
295.175
291.965
304.879
299.808
294.987
292.177
307.712
301.165
295.726
292.335
306.135
300.809
295.668
292.686
308.334
301.627
296.053
292.6
306.797
301.316
296.03
292.974
285.325
282.205
279.951
278.504
277.799
285.32
282.212
279.957
278.508
277.802
285.386
282.237
279.968
278.514
277.806
285.399
282.255
279.981
278.522
277.812
285.469
282.277
279.99
278.527
277.816
285.494
282.305
280.01
278.54
277.825
285.61
282.375
280.051
278.565
277.844
285.778
282.475
280.11
278.602
277.871
285.579
282.338
280.026
278.549
277.832
285.686
282.374
280.042
278.558
277.838
285.539
282.307
280.006
278.536
277.822
285.633
282.34
280.022
278.546
277.829
285.682
282.401
280.063
278.572
277.849
285.784
282.43
280.076
278.579
277.854
285.843
282.494
280.118
278.606
277.874
285.926
282.511
280.123
278.609
277.875
285.348
282.202
279.946
278.5
277.796
285.375
282.2
279.943
278.498
277.794
285.394
282.225
279.959
278.507
277.801
285.41
282.218
279.952
278.503
277.798
285.47
282.261
279.978
278.519
277.81
285.473
282.249
279.969
278.513
277.805
285.555
282.297
279.997
278.53
277.818
285.543
282.285
279.989
278.525
277.814
285.6
282.318
280.009
278.537
277.823
530.556
527.741
530.153
527.356
529.776
527.125
530.192
527.662
532.407
529.954
536.765
537.176
535.523
535.055
537.238
537.965
537.357
537.938
564.412
571.163
572.586
572.907
572.977
557.166
569.176
572.135
572.81
572.954
564.483
571.191
572.593
572.909
572.977
557.244
569.217
572.144
572.814
572.955
564.523
571.214
572.6
572.911
572.977
557.312
569.253
572.155
572.816
572.955
564.778
571.283
572.617
572.915
572.978
557.624
569.34
572.176
572.821
572.956
565.391
571.414
572.645
572.921
572.98
558.389
569.511
572.213
572.829
572.958
565.929
571.48
572.654
572.922
572.98
560.316
569.895
572.288
572.843
572.961
565.804
571.47
572.654
572.922
572.98
559.591
569.746
572.26
572.838
572.96
565.954
571.478
572.653
572.922
572.98
560.652
569.974
572.304
572.846
572.962
566.008
571.491
572.656
572.922
572.98
560.709
570
572.308
572.847
572.962
424.867
461.29
458.856
420.474
403.425
404.931
406.847
409.761
418.818
422.845
449.442
458.68
457.508
467.409
433.12
437.749
420.608
424.048
413.719
415.811
367.314
349.383
302.827
296.545
299.303
296.275
300.893
364.974
358.808
341.286
348.186
344.647
321.856
331.837
327.63
316.079
319.812
314.39
361.89
335.357
319.138
315.447
323.366
319.044
311.167
309.474
307.536
303.997
312.594
309.702
363.889
342.288
350.313
330.924
323.586
336.014
311.767
304.691
314.637
348.796
332.702
318.445
303.319
285.388
338
326.144
313.186
298.966
282.631
299.808
295.59
290.085
283.642
276.615
294.218
290.926
286.583
281.467
275.876
296.685
292.991
288.129
282.421
276.198
293.98
290.728
286.432
281.371
275.843
298.097
294.168
289.014
282.971
276.385
346.776
329.941
315.455
300.741
284.361
340.816
324.249
310.209
296.281
281.314
331.236
320.054
307.759
294.682
280.614
332.913
318.092
305.136
292.461
279.666
330.187
315.827
303.239
291.082
279.084
315.975
308.449
299.353
289.253
278.509
323.717
314.132
303.235
291.57
279.316
320.253
311.349
301.107
290.149
278.777
311.211
304.75
296.713
287.644
277.956
314.203
306.974
298.208
288.496
278.233
309.789
303.62
295.889
287.135
277.78
345.499
329.738
315.735
301.076
284.518
327.113
317.377
306.15
293.81
280.311
313.86
306.936
298.382
288.727
278.346
310.775
304.529
296.68
287.71
278.004
317.432
309.839
300.597
290.19
278.897
313.897
307.109
298.648
288.983
278.46
307.13
301.634
294.604
286.461
277.583
305.653
300.405
293.66
285.848
277.364
303.944
298.974
292.56
285.139
277.115
300.84
296.432
290.691
283.999
276.731
308.31
302.504
295.145
286.724
277.653
305.833
300.528
293.726
285.872
277.368
346.809
331.224
317.275
302.451
285.188
332.644
321.994
309.996
296.693
281.606
338.794
325.876
312.851
298.67
282.454
323.872
315.182
304.78
293.023
279.983
317.771
310.273
301.054
290.553
279.035
327.841
318.16
306.906
294.416
280.565
307.647
302.043
294.89
286.625
277.635
301.451
296.941
291.079
284.247
276.818
310.108
304.024
296.34
287.519
277.943
504.571
542.399
497.954
537.331
474.486
518.614
480.855
523.738
486.493
472.761
517.316
489.832
461.796
447.236
490.922
461.56
521.336
535.444
550.905
557.411
515.014
528.796
546.939
554.123
530.183
505.139
508.799
492.196
518.851
541.685
541.509
542.899
503.438
509.404
518.471
518.999
473.923
478.618
548.351
552.309
523.229
531.198
557.899
562.042
549.219
564.238
563.359
569.51
542.93
561.705
560.458
568.256
529.99
556.146
546.046
563.113
557.306
567.309
561.843
568.905
466.504
458.613
475.376
461.395
438.116
430.762
446.004
432.787
501.915
489.18
492.809
485.822
482.115
462.7
484.45
462.468
451.929
433.692
453.706
433.131
508.64
490.813
511.191
490.91
526.507
555.397
516.767
547.725
518.32
550.972
512.876
544.434
532.497
558.074
518.715
549.476
534.895
559.215
519.047
550.28
536.196
521.238
558.683
548.398
528.199
514.099
555.239
544.036
516.425
504.153
549.329
537.852
457.465
429.61
483.255
508.101
542.985
426.6
453.028
476.957
499.767
533.051
427.269
454.476
481.149
507.376
538.113
500.722
486.691
516.638
503.612
496.919
483.537
516.043
502.555
490.758
477.801
515.002
501.266
419.552
410.716
445.913
436.024
468.706
457.473
490.527
478.12
516.24
502.792
418.884
407.864
446.967
439.276
473.538
465.64
498.318
488.444
520.808
508.75
448.881
445.117
446.606
442.503
417.894
401.832
415.361
397.392
475.734
474.632
477.231
475.447
443.554
440.246
442.866
439.481
413.118
395.061
412.136
393.715
472.87
473.017
472.514
472.752
503.06
501.686
525.367
523.054
503.134
500.608
524.831
520.779
501.706
501.168
525.305
523.593
500.276
500.092
524.097
522.408
478.043
474.24
492.335
487.224
474.939
470.563
491.041
484.992
468.981
464.5
489.148
481.765
403.097
397.837
428.186
422.491
449.118
442.937
468.786
462.642
488.847
478.938
397.6
391.364
432.5
425.483
457.26
448.706
476.485
465.913
490.026
477.096
407.752
401.094
416.577
407.988
433.721
422.272
450.42
432.745
389.708
370.161
393.282
372.526
389.256
372.086
393.292
374.27
391.664
386.699
390.959
385.689
374.763
377.78
412.113
414.565
439.407
442.694
394.08
397.342
393.921
395.549
379.341
380.751
354.642
335.977
356.373
337.082
356.182
335.693
357.477
336.749
359.141
335.236
361.808
337.148
363.233
337.703
362.719
336.837
390.308
381.953
394.78
382.482
412.454
404.594
418.515
405.848
375.832
362.113
372.599
361.933
397.623
382.541
398.404
381.664
422.672
406.312
423.938
405.545
377.682
361.94
377.939
360.97
357.459
333.367
345.011
326.053
355.053
331.953
344.865
325.857
358.69
334.021
344.74
325.773
358.603
333.79
343.773
324.975
351.113
346.179
333.281
328.808
352.563
347.936
332.805
328.548
354.929
351.322
332.132
328.585
384.901
405.5
368.09
351.85
329.569
403.955
384.791
367.782
350.931
327.754
401.882
380.465
361.063
344.253
325.271
340.018
332.724
322.57
313.027
342.497
335.655
322.956
313.789
346.434
340.289
323.576
314.883
397.44
389.483
378.624
371.635
362.003
356.123
345.203
338.718
323.142
314.799
393.687
381.717
372.862
361.46
354.339
343.83
337.958
327.372
320.902
311.754
368.483
352.144
367.118
348.969
390.349
373.127
388.732
368.732
349.072
333.434
350.192
335.615
367.165
347.225
366.079
345.705
388.228
366.185
387.159
364.568
349.162
332.219
348.029
330.797
332.516
318.613
317.265
306.194
334.194
320.155
318.658
307.546
331.735
317.691
316.14
304.942
331.532
316.783
315.628
304.568
326.582
324.466
297.34
295.752
330.361
327.843
298.459
296.671
335.203
331.24
299.73
296.174
382.398
377.33
365.198
360.731
350.368
346.442
331.726
326.149
298.829
293.25
371.081
366.075
351.381
346.963
334.074
330.056
315.966
311.645
292.808
288.591
318.032
305.811
297.804
291.858
318.584
305.91
297.688
291.645
317.579
305.598
297.714
291.801
318.206
305.665
297.595
291.637
316.716
305.223
297.747
291.983
317.481
305.26
297.581
291.769
317.132
304.865
297.014
291.247
316.206
304.199
296.451
290.833
315.62
304.553
297.402
291.845
312.745
303.597
297.249
292.284
315.285
304.675
297.755
292.316
313.093
303.95
297.563
292.613
315.552
304.265
296.968
291.443
312.332
303.215
296.906
292.044
315.05
303.794
296.537
291.157
311.803
302.787
296.574
291.844
316.915
305.564
298.022
292.344
315.213
305.182
298.217
293.02
316.475
305.386
297.982
292.347
314.951
305.07
298.16
293.001
315.755
305.087
297.954
292.44
314.569
304.869
298.061
292.974
314.496
304.62
297.895
292.655
313.977
304.6
297.98
293.01
313.232
304.183
297.816
292.945
313.472
304.84
298.141
294.139
312.254
304.648
298.191
294.616
313.409
304.769
298.109
294.121
312.222
304.579
298.148
294.586
313.207
304.609
297.987
294.026
312.063
304.428
298.034
294.508
312.774
304.34
297.875
293.942
311.683
304.185
297.899
294.414
311.998
303.943
297.732
293.87
310.933
303.837
297.719
294.301
310.261
303.001
297.119
293.464
308.917
302.845
297.148
293.871
311.067
303.478
297.437
293.678
309.859
303.364
297.461
294.113
309.547
302.537
296.741
293.168
308.099
302.32
296.768
293.57
308.935
302.081
296.393
292.883
307.429
301.809
296.391
293.266
286.477
282.871
280.339
278.744
277.975
286.42
282.853
280.332
278.74
277.972
286.436
282.844
280.322
278.733
277.967
286.359
282.814
280.308
278.725
277.961
286.395
282.811
280.301
278.72
277.957
286.289
282.768
280.28
278.707
277.948
286.164
282.698
280.24
278.682
277.93
285.988
282.597
280.181
278.647
277.904
286.294
282.752
280.267
278.698
277.942
286.32
282.736
280.253
278.689
277.934
286.385
282.791
280.287
278.711
277.951
286.392
282.772
280.273
278.701
277.943
286.175
282.687
280.23
278.676
277.925
286.215
282.679
280.22
278.669
277.92
286.014
282.594
280.176
278.643
277.9
286.076
282.598
280.174
278.64
277.898
286.558
282.892
280.347
278.748
277.978
286.628
282.906
280.352
278.75
277.98
286.53
282.872
280.334
278.74
277.972
286.605
282.89
280.342
278.744
277.975
286.491
282.841
280.315
278.727
277.963
286.561
282.861
280.324
278.733
277.967
286.465
282.812
280.296
278.715
277.954
286.503
282.826
280.303
278.719
277.957
286.439
282.793
280.284
278.708
277.948
528.67
527.174
528.871
527.345
529.441
527.903
530.696
529.033
533.138
531.34
537.029
537.522
535.945
535.693
537.387
538.146
537.406
537.996
564.258
571.156
572.587
572.908
572.977
557.036
569.17
572.138
572.811
572.954
564.403
571.193
572.596
572.91
572.977
557.242
569.23
572.15
572.816
572.955
564.557
571.231
572.605
572.912
572.978
557.492
569.294
572.165
572.819
572.956
564.905
571.31
572.623
572.916
572.979
557.944
569.403
572.19
572.824
572.957
565.533
571.442
572.651
572.922
572.98
558.728
569.579
572.227
572.832
572.959
565.989
571.494
572.658
572.923
572.98
560.454
569.93
572.296
572.845
572.962
565.9
571.492
572.659
572.924
572.98
559.822
569.799
572.271
572.841
572.961
565.988
571.486
572.655
572.922
572.98
560.724
569.994
572.309
572.847
572.962
566.019
571.494
572.656
572.922
572.98
560.731
570.007
572.309
572.847
572.962
425.009
461.035
457.88
420.858
414.082
420.256
411.72
419.386
441.33
457.935
445.215
459.884
280.502
281.092
282.406
284.526
287.587
291.724
281
281.605
282.946
285.086
288.113
292.11
280.124
279.938
280.752
280.63
282.154
282.178
284.433
284.741
287.685
288.358
291.868
292.631
297.048
303.586
311.504
320.87
329.898
335.821
297.125
303.117
309.946
317.113
323.431
327.367
279.787
278.761
277.383
275.741
273.932
280.321
279.212
277.726
275.954
274.005
281.507
280.216
278.488
276.43
274.166
283.419
281.833
279.714
277.194
274.426
286.177
284.162
281.478
278.293
274.799
289.896
287.296
283.847
279.768
275.3
280.238
279.142
277.673
275.921
273.994
280.783
279.604
278.023
276.14
274.068
281.993
280.626
278.799
276.623
274.232
283.923
282.257
280.035
277.394
274.494
286.647
284.557
281.775
278.478
274.862
290.238
287.581
284.06
279.9
275.345
279.446
278.472
277.164
275.604
273.886
279.278
278.329
277.055
275.536
273.863
280.014
278.952
277.529
275.831
273.963
279.903
278.858
277.457
275.787
273.948
281.279
280.024
278.342
276.339
274.136
281.301
280.043
278.357
276.348
274.139
283.336
281.764
279.662
277.162
274.415
283.615
282
279.842
277.274
274.453
286.267
284.241
281.538
278.331
274.812
286.874
284.753
281.927
278.573
274.894
290.029
287.411
283.935
279.822
275.318
290.716
287.991
284.373
280.094
275.41
294.664
291.299
286.865
281.644
275.937
300.482
296.155
290.516
283.916
276.71
307.451
301.925
294.843
286.62
277.639
315.543
308.547
299.811
289.77
278.748
323.093
314.619
304.385
292.753
279.858
327.952
318.497
307.322
294.702
280.607
294.728
291.35
286.902
281.668
275.946
300.066
295.81
290.259
283.758
276.657
306.105
300.828
294.028
286.11
277.461
312.377
306.002
297.911
288.549
278.304
317.832
310.468
301.265
290.678
279.054
321.208
313.225
303.343
292.008
279.528
280.6
281.394
282.934
285.318
288.699
293.227
281.102
281.917
283.486
285.885
289.202
293.513
280.223
280.04
281.057
280.946
282.693
282.743
285.256
285.621
288.862
289.617
293.528
294.461
298.97
305.833
313.878
322.99
331.348
336.333
298.82
305.006
311.845
318.759
324.55
327.763
279.876
278.836
277.441
275.777
273.945
280.594
279.445
277.904
276.066
274.043
281.986
280.624
278.8
276.625
274.233
284.139
282.447
280.184
277.49
274.527
287.189
285.027
282.141
278.711
274.942
291.267
288.471
284.751
280.338
275.495
280.33
279.221
277.733
275.959
274.007
281.066
279.845
278.207
276.255
274.107
282.484
281.045
279.119
276.824
274.301
284.648
282.877
280.509
277.692
274.596
287.639
285.405
282.426
278.887
275.002
291.517
288.677
284.903
280.432
275.527
279.536
278.548
277.222
275.64
273.898
279.37
278.407
277.115
275.573
273.875
280.29
279.187
277.708
275.944
274.001
280.189
279.102
277.643
275.903
273.988
281.768
280.44
278.66
276.538
274.204
281.814
280.479
278.69
276.557
274.21
284.084
282.402
280.15
277.469
274.52
284.414
282.682
280.363
277.602
274.565
287.339
285.156
282.241
278.773
274.963
288.02
285.734
282.68
279.047
275.056
291.543
288.709
284.933
280.452
275.534
292.387
289.425
285.478
280.792
275.649
296.422
292.812
288.033
282.384
276.19
302.548
297.945
291.906
284.8
277.014
309.652
303.848
296.351
287.587
277.973
317.533
310.308
301.211
290.68
279.066
324.474
315.856
305.383
293.412
280.093
328.444
318.942
307.684
294.944
280.694
296.278
292.683
287.931
282.319
276.169
301.8
297.309
291.421
284.496
276.91
307.857
302.352
295.216
286.869
277.723
313.905
307.34
298.963
289.225
278.539
318.878
311.389
301.995
291.151
279.219
321.579
313.553
303.604
292.178
279.588
368.108
350.056
305.565
298.728
302.398
298.722
303.872
374.634
372.791
350.855
363.161
329.428
341.603
322.637
326.967
320.183
368.242
342.127
325.386
320.528
329.165
323.462
314.325
313.392
312.406
308.076
318.064
314.252
366.383
344.248
354.754
333.893
327.352
341.187
315.514
308.246
319.075
349.656
333.507
319.139
303.822
285.592
338.675
326.772
313.714
299.332
282.771
302.329
297.776
291.785
284.724
276.988
296.216
292.647
287.913
282.309
276.165
299.525
295.443
290.03
283.627
276.612
296.219
292.657
287.923
282.315
276.166
300.837
296.538
290.854
284.141
276.787
357.602
340.318
324.28
306.885
286.762
356.387
339.057
322.606
304.649
284.27
340.96
329.202
315.371
299.794
282.449
349.745
334.001
318.425
301.37
282.825
323.294
315.097
304.736
292.784
279.744
333.503
323.243
310.749
296.56
281.072
317.463
310.363
301.217
290.578
278.977
321.234
313.45
303.507
291.995
279.46
315.332
308.619
299.917
289.766
278.697
352.369
336.382
321.442
305.102
286.153
333.785
323.539
311.226
297.203
281.53
319.813
312.279
302.671
291.523
279.321
315.563
308.783
300.065
289.905
278.767
322.982
314.844
304.635
292.839
279.827
318.069
310.824
301.615
290.914
279.133
310.069
304.212
296.634
287.767
278.035
309.298
303.601
296.173
287.461
277.921
308.467
302.934
295.671
287.134
277.803
304.604
299.702
293.24
285.625
277.291
313.453
307.062
298.764
289.063
278.463
310.076
304.258
296.665
287.762
278.021
349.497
333.745
319.444
304.012
285.831
334.58
323.778
311.476
297.704
281.984
343.332
330.147
316.466
301.172
283.391
326.725
317.765
306.88
294.418
280.482
321.346
313.474
303.626
292.238
279.627
332.915
322.839
310.765
297.006
281.501
311.142
305.116
297.315
288.187
278.176
304.737
299.803
293.314
285.675
277.309
314.273
307.711
299.266
289.412
278.6
280.149
293.989
306.704
317.766
326.564
333.186
485.858
480.023
456.807
462.513
470.624
461.804
447.409
437.036
504.965
520.171
498.677
512.32
489.545
481.149
500.843
476.253
471.525
448.931
453.521
463.57
455.785
441.114
432.214
495.195
506.168
489.708
499.329
481.218
473.448
489.344
462.921
459.469
437.951
441.312
453.291
446.988
431.911
424.398
480.308
490.913
475.933
485.511
469.429
462.874
477.404
449.193
446.65
426.486
429.054
441.735
436.319
421.631
415.167
466.295
477.539
462.785
473.114
457.51
451.25
465.95
439.269
437.213
418.144
420.311
432.967
428.29
413.916
408.011
455.728
467.734
452.74
464.193
448.497
442.982
457.965
432.555
430.739
412.453
414.417
426.942
422.859
408.545
403.059
448.784
462.422
446.054
458.98
442.542
437.639
452.757
407.733
404.656
430.075
434.32
400.385
395.088
423.164
414.703
385.51
365.311
384.584
366.98
380.902
380.347
369.623
403.59
400.723
424.375
428.07
396.728
391.79
418.251
410.407
381.025
361.531
380.252
363.352
376.803
376.693
365.772
396.999
394.468
415.882
418.862
390.922
386.402
410.79
404.019
376.448
356.847
375.613
358.493
372.481
372.302
360.712
388.832
386.631
406.289
408.723
383.326
378.821
401.993
395.671
369.718
350.993
368.993
352.448
366.146
365.914
354.678
382.302
380.303
399.049
401.189
377.337
373.073
395.19
389.373
363.954
346.614
363.321
347.709
360.966
360.669
349.966
377.639
375.776
394.032
396.007
373.194
369.396
390.431
385.037
360.277
343.65
359.77
344.72
357.657
357.539
347.199
539.499
555.584
528.528
548.009
513.47
538.387
487.417
517.032
487.002
510.44
510.282
533.192
524.374
544.154
534.269
551.898
504.852
484.905
524.598
495.749
476.967
456.145
496.737
465.738
547.42
554.805
560.055
564.067
536.81
546.117
553.423
559.312
537.23
522.152
515.023
505.111
533.741
547.613
543.704
543.396
505.853
509.989
520.305
519.431
475.574
479.012
550.691
552.821
525.738
531.795
559.718
562.418
559.778
567.706
567.15
570.784
552.818
564.95
563.6
569.361
539.361
559.189
550.572
564.635
558.923
567.881
562.165
569.027
470.769
458.943
478.074
461.378
439.225
428.689
446.957
431.42
505.339
489.822
498.547
487.254
483.328
462.558
484.745
462.376
452.287
432.863
453.75
432.825
510.223
491.035
511.603
490.94
529.27
556.345
517.414
547.941
522.924
552.549
514.189
544.867
533.806
558.542
518.981
549.567
535.245
559.348
519.104
550.301
553.573
541.153
564.179
555.055
543.658
531.294
560.183
549.822
529.194
517.704
553.404
542.284
456.171
419.341
487.934
513.678
544.974
413.773
450.522
482.295
506.622
535.447
419.134
452.717
482.861
509.473
538.796
518.993
499.843
523.677
505.39
512.845
495.146
521.513
503.105
503.632
487.107
518.468
500.305
403.768
391.459
441.615
428.948
472.028
458.28
495.461
480.38
517.096
500.207
407.944
394.491
442.952
432.484
473.412
462.37
499.017
486.089
520.487
505.842
446.619
441.28
445.056
440.046
412.341
393.699
412.268
392.787
475.175
473.424
476.813
473.795
442.622
438.911
442.551
439.061
411.48
392.719
411.61
392.996
472.441
472.292
472.356
472.515
502.891
501.082
525.181
522.613
503.216
499.72
524.661
519.973
501.529
500.798
525.169
523.35
500.199
499.958
524.046
522.327
479.674
464.542
456.813
482.635
466.287
458.26
476.406
461.072
453.028
480.521
463.632
455.204
468.676
453.293
445.166
477.652
459.527
450.416
378.447
369.516
365.309
414.427
401.967
395.367
442.224
426.996
418.511
462.017
445.508
436.823
476.407
456.208
445.848
380.026
368.848
363.476
419.946
406.502
399.298
447.39
430.795
421.403
466.866
446.968
436.003
478.937
455.949
443.795
410.243
401.433
415.913
407.209
441.909
426.751
452.433
434.39
385.931
363.421
387.101
365.369
387.279
366.166
389.16
368.282
388.849
384.889
388.236
382.72
369.609
373.285
411.404
414.283
439.916
442.774
392.207
396.686
392.169
394.923
376.422
379.699
341.399
323.73
346.785
327.121
344.037
324.32
349.345
328.185
348.291
325.106
355.427
330.159
359.383
333.333
361.372
335.309
384.066
374.684
391.611
378.235
409.851
399.606
417.38
402.891
370.913
357.142
363.6
353.619
395.941
380.251
397.858
380.915
422.012
404.688
423.69
404.997
375.063
359.242
377.107
360.097
351.127
327.478
339.978
321.716
344.424
323.401
336.751
319.338
355.236
330.535
341.958
323.277
357.509
332.642
342.873
324.156
324.843
313.647
317.039
309.629
327.17
316.41
317.39
310.405
331.618
322.478
318.37
312.61
365.062
388.56
347.654
334.735
318.287
383.608
360.417
341.116
328.799
314.49
388.275
364.991
346.371
331.835
316.434
304.396
295.832
302.334
294.497
307.515
298.831
303.727
295.982
313.597
304.701
306.449
298.721
373.392
361.539
350.602
339.311
333.522
323.655
321.428
312.064
309.749
301.957
376.857
362.464
354.417
340.886
337.469
325.661
324.245
313.317
311.797
303.207
358.654
340.705
361.824
342.787
381.669
361.933
384.175
362.726
343.696
327.746
340.715
325.486
364.492
344.136
365.245
344.773
385.949
363.187
386.445
363.663
346.384
329.337
347.16
329.924
327.687
314.011
313.485
302.891
326.05
312.268
312.689
302.205
329.134
315.288
314.027
303.141
330.681
316.021
314.955
304.015
286.937
282.674
281.018
281.902
278.495
277.351
290.197
285.461
283.592
283.426
279.867
278.562
296.143
290.915
288.759
285.848
281.652
280.052
349.975
342.397
338.936
329.03
322.685
319.983
314.282
308.436
306.145
302.37
296.196
293.537
287.631
282.64
280.664
348.702
339.037
334.873
328.503
319.942
316.28
314.289
306.628
303.477
301.521
294.694
292.102
286.571
281.87
280.04
309.835
300.67
294.554
289.8
311.333
301.23
294.687
289.73
309.939
300.771
294.675
289.912
311.888
301.537
294.939
289.952
309.918
300.863
294.964
290.257
312.316
301.84
295.334
290.331
313.769
302.594
295.511
290.275
315.008
303.379
295.905
290.474
311.367
301.68
295.461
290.549
309.429
301.256
295.588
291.086
309.494
300.865
295.235
290.687
308.317
300.673
295.33
291.093
312.915
302.451
295.721
290.583
310.361
301.799
295.872
291.258
314.15
303.169
296.105
290.858
311.145
302.309
296.221
291.571
307.391
299.818
294.431
290.061
304.487
298.854
294.285
290.468
307.408
299.867
294.535
290.183
304.723
298.968
294.363
290.555
307.544
299.988
294.739
290.439
305.393
299.259
294.54
290.717
307.367
300.053
294.953
290.799
305.928
299.53
294.761
290.959
307.115
300.123
295.132
291.177
302.126
298.148
294.006
291.195
300.739
297.796
293.906
291.441
302.626
298.338
294.11
291.278
301.298
298.003
294.004
291.506
303.528
298.692
294.277
291.391
302.24
298.366
294.165
291.612
304.623
299.158
294.557
291.588
303.312
298.816
294.396
291.767
305.666
299.698
294.901
291.806
304.211
299.296
294.666
291.954
307.114
300.702
295.462
292.153
305.511
300.302
295.33
292.428
306.437
300.215
295.173
291.964
304.876
299.806
294.986
292.176
307.709
301.163
295.724
292.334
306.132
300.807
295.667
292.685
308.332
301.625
296.052
292.599
306.794
301.314
296.028
292.973
285.322
282.204
279.95
278.503
277.798
285.316
282.21
279.956
278.507
277.801
285.385
282.237
279.968
278.514
277.806
285.399
282.255
279.981
278.522
277.812
285.469
282.277
279.991
278.527
277.816
285.494
282.305
280.01
278.54
277.825
285.61
282.375
280.051
278.565
277.844
285.778
282.475
280.11
278.602
277.871
285.578
282.338
280.026
278.549
277.832
285.686
282.373
280.042
278.558
277.838
285.539
282.307
280.006
278.536
277.823
285.633
282.34
280.022
278.546
277.829
285.682
282.401
280.063
278.572
277.849
285.784
282.43
280.076
278.579
277.854
285.842
282.494
280.118
278.606
277.874
285.925
282.511
280.123
278.609
277.876
285.345
282.2
279.946
278.5
277.796
285.372
282.199
279.943
278.498
277.794
285.394
282.224
279.959
278.508
277.801
285.409
282.217
279.952
278.503
277.798
285.47
282.261
279.978
278.519
277.81
285.473
282.249
279.969
278.514
277.805
285.555
282.297
279.997
278.53
277.818
285.543
282.285
279.99
278.526
277.814
285.6
282.318
280.009
278.537
277.823
530.622
527.817
530.164
527.365
529.779
527.128
530.192
527.662
532.406
529.953
536.763
537.175
535.521
535.054
537.236
537.963
537.355
537.936
564.469
571.177
572.589
572.908
572.977
557.201
569.186
572.138
572.81
572.954
564.479
571.19
572.593
572.909
572.977
557.248
569.218
572.144
572.814
572.955
564.522
571.214
572.6
572.911
572.977
557.314
569.253
572.155
572.817
572.955
564.778
571.283
572.617
572.915
572.978
557.625
569.341
572.177
572.821
572.956
565.391
571.414
572.645
572.921
572.98
558.389
569.511
572.213
572.829
572.958
565.929
571.48
572.654
572.922
572.98
560.316
569.895
572.288
572.843