/*--------------------------------*- C++ -*----------------------------------*\
  =========                 |
  \\      /  F ield         | OpenFOAM: The Open Source CFD Toolbox
   \\    /   O peration     | Website:  https://openfoam.org
    \\  /    A nd           | Version:  11
     \\/     M anipulation  |
\*---------------------------------------------------------------------------*/
FoamFile
{
    format      ascii;
    class       volScalarField;
    location    "0.4";
    object      gradTz;
}
// * * * * * * * * * * * * * * * * * * * * * * * * * * * * * * * * * * * * * //

dimensions      [0 -1 0 1 0 0 0];

internalField   nonuniform List<scalar> 
5712
(
11254.9
36608.2
9116.94
37362.1
6594.96
37730.9
9832.33
55143
11964.2
74987.6
12234
56463.1
12153.1
47903.8
12679.6
43405
7560.4
4883.33
20516.8
12311.1
7121.16
3750.73
21171.2
10271.4
8982.37
7086.14
28543
21645.6
6788.15
5465.04
27938.4
21826.3
16037.5
6921.57
13891
6358.31
6927.17
15634.6
50609.9
13322.6
18253
5550.93
62005.5
16286.1
16023.6
4792.93
38032.3
11578.8
19408.7
6435.98
34691.6
10852.2
13226.2
6552.02
16681.9
6772.81
14317.2
7678.51
16125.6
6487.82
17131
10026.7
13695.3
6315.12
19227.2
7246.22
6477.72
2366.84
19767.1
13660.9
11683.5
8238.67
18568.9
14653.3
9924.77
7853.24
12524.1
8695.83
18936.2
13085.1
7283.97
5079.83
3154.19
2504.9
6017.27
4750.12
2488.11
2376.32
7929.45
5237.32
3634.18
2295.05
12259.3
7133.6
9841.27
12445.1
17595.1
13165.9
14837.8
21444.3
7725.24
3955.66
5548.44
6993.34
3523.95
1605.77
2149.98
2461.86
18823.2
32716.1
12470.2
36624.3
21350.3
31434.2
15046
37720.5
23232.7
27538.9
18777.1
35869.3
20142.4
19689.4
18646.8
19127.6
21218.1
18862.1
21797.7
25485.1
28996.9
43092.7
15766.1
15185.8
15511.8
18827.1
30049.9
37345.9
32049.6
43256.1
39954.6
33826.2
30045.4
42244
38686.1
28521.7
26764.7
38903.7
36664.6
13513.5
10262.3
16418.9
14163
20524.3
18742.3
24621.3
23572.7
34855.9
34667
12400.2
10769.1
14842
15178.8
17844
19805.7
22069.7
25120.3
30052
34062.9
11816.9
8527.58
7428.83
8110.09
12887.1
13304.5
8289.26
11410.1
7621.92
8393.3
12179.7
9300.12
2005.95
5014.42
467.99
1430.41
3865.79
7224.49
932.508
2132.47
1691.03
5019.44
330.314
1424.31
8540.76
7497.39
10689.1
6230.36
14138.9
10615.1
17814.5
11686.3
2704.99
3905.24
5296.51
2774.39
2235.44
2525.72
3223.4
2216.67
24661.4
14371.3
4509.55
27908.6
15413.9
4913.56
23496.6
14063.7
4696.04
27073.5
15235.5
4850.65
21041.4
12601.3
4044.69
25818.3
14899.9
4790.22
7048.16
4153.33
1280.94
11241.1
7129.91
2333.6
15453.4
9895.37
3264.52
19539.4
12055.8
3874.06
25120.8
14902.4
4906.4
7955.67
4752.11
1643.46
11618.2
8014.85
2947.03
15547.7
10722.2
3839.29
20039.1
13253.7
4595.32
25438.1
15246.9
5209.11
289.473
1968.39
2848.85
4049.06
2893.74
2937.1
6984.79
6245.77
534.175
697.769
569.117
724.215
324.67
981.724
658.374
1318.83
2456.59
1249.02
3357.3
2005.28
1556.17
2571.07
3309.37
-179.488
7514.8
986.011
-3142.3
-982.266
927.581
-19.7219
-41.9959
-611.288
6485.07
2264.29
1696.01
821.288
6658.56
2320.81
2148.69
1003.74
6743.92
2456.06
2942.61
1473.74
1778.74
875.422
-24.0923
105.138
12278.2
10030.5
5481.27
5134.93
15561.6
13573.6
7457.44
6761.77
3952.51
3692.24
8951.47
6670.96
2833.84
2814.07
957.353
1374.39
4195.68
3833.81
1661.94
1903.65
1843.57
2022.36
438.657
1031.73
2803.5
1304.84
2509.18
1146.29
4837.04
1868.14
4032.82
1714.35
1251.11
750.844
1392.06
622.165
166.026
198.932
689.8
239.515
7119.58
3683.64
2672.05
2061.07
7248.76
3985.63
2662.89
2069.92
7970.5
4662.24
2719.91
2115.79
13288.3
16943.4
10133.9
5440.76
2004.83
15230.1
11762.1
8996.6
5932.2
2435.3
14350.4
10833.7
7142.13
4313.39
1704.19
2098.18
1227.21
1478.75
1091.52
2444.47
1406.11
1595.78
1177.58
3113.45
1850.32
1801.56
1346.94
10824.4
7135.3
8237.63
5052.53
5208.02
3468
3742.48
2474.71
1829.79
1499.38
9090.08
7257.74
6630.33
5046.54
4536.7
3425.29
2966.97
2298.91
1373.5
1399.31
5987.07
3706.94
3717.66
2186.5
9292.55
6441.92
6020.91
4535
2425.73
1375.84
3763.97
2404.76
3280.77
1486.86
796.647
382.32
4144.52
2842.5
975.964
782.854
2312.2
947.804
594.935
246.596
1397.78
1018.24
678.409
789.677
2137.16
1547.23
921.633
1012.44
1385.21
685.987
474.252
522.543
231.399
79.4881
-202.06
-23.9731
652.836
251.959
67.7238
594.807
165.579
41.9106
779.849
315.525
89.3298
657.523
193.086
50.5961
1000.35
426.408
115.378
764.952
234.786
59.1507
4366.56
2362.16
683.997
2837.55
1401.48
403.412
1958.79
914.12
264.543
1340.11
578.489
152.702
872.275
267.685
60.553
5062.68
2616.09
817.995
3338.85
1571.39
462.988
2223.05
1007.1
288.685
1459.86
611.745
165.062
956.788
269.092
67.1828
622.785
157.62
33.6412
4.44573
255.939
66.2664
15.0248
2.61573
638.755
163.671
36.8337
6.35888
296.167
78.1243
23.5894
6.90116
657.225
170.005
44.6808
11.0135
429.777
116.841
22.6404
3.24606
209.873
63.8108
0.705987
-4.55357
67.7789
30.5449
4.84825
0.724472
447.71
123.954
23.0293
-0.984546
331.553
88.9334
24.9208
2.34487
596.216
157.056
39.0667
6.74427
473.896
122.278
34.5858
2.98321
275.472
81.408
15.8839
0.451879
200.789
56.8178
17.4611
3.08822
102.113
35.4376
8.85657
2.44186
74.5621
24.2976
8.77541
2.7608
746.131
189.865
42.395
4.96384
647.183
167.907
49.1334
6.90757
733.81
186.68
41.8221
4.62465
629.702
162.135
48.3461
6.46921
705.373
178.862
46.3784
7.65645
598.897
151.744
49.5594
7.91847
577.592
148.725
45.5096
12.5301
648.105
162.222
59.9747
10.6828
475.076
121.179
39.3263
6.91212
435.034
110.157
37.4776
7.39472
157.305
38.4913
11.4501
3.3042
461.458
115.673
38.5025
7.42207
169.212
41.0589
12.3805
3.67307
490.017
120.627
40.5875
7.79515
181.811
43.4232
13.1024
3.99396
455.934
111.309
41.1144
7.95876
184.887
43.5641
14.4952
4.40698
413.513
102.212
38.2097
7.76141
167.169
41.1076
15.3152
4.62106
237.904
59.1814
17.5865
3.42935
122.104
32.8718
10.2332
3.17216
314.258
76.5467
25.953
5.2866
145.817
37.6668
13.1156
4.07207
151.127
39.0827
11.1354
2.38352
79.2004
22.5349
6.40562
2.13793
58.9119
17.363
6.03763
1.8614
32.9557
10.9753
3.63734
1.36179
0.909097
0.179895
0.0370907
0.00812548
0.00221144
0.428237
0.0857756
0.0181561
0.00407979
0.00113378
1.12334
0.23229
0.0520917
0.0123593
0.00358666
0.707532
0.152681
0.0368734
0.00923909
0.00278192
1.23204
0.273191
0.0666837
0.0168057
0.00508357
1.20105
0.345943
0.0943258
0.0251444
0.00786252
0.879687
0.305143
0.0889156
0.0246011
0.00790059
0.830846
0.289569
0.0881511
0.0252961
0.00837259
0.913328
0.271315
0.0742786
0.0198699
0.0062399
0.751063
0.225473
0.0635047
0.0173217
0.00551064
1.10717
0.270461
0.069148
0.0178903
0.00550179
0.878863
0.259813
0.0714098
0.0191169
0.00599042
0.795159
0.253652
0.072634
0.0200213
0.00643333
0.70131
0.213768
0.0622666
0.0174789
0.00569122
0.6973
0.226441
0.0685203
0.0197485
0.00657358
0.593326
0.18399
0.0552836
0.0159805
0.00534266
0.855367
0.160584
0.0319994
0.00681883
0.00181381
0.369025
0.0653078
0.0127783
0.00269943
0.000713535
0.975658
0.197047
0.0421972
0.00961973
0.0027086
0.414326
0.0798195
0.016763
0.00376937
0.00104994
1.01829
0.210832
0.0484592
0.0117606
0.00347162
0.588095
0.124382
0.029058
0.00711997
0.00211173
1.2017
0.279352
0.070031
0.0179104
0.0054618
0.811049
0.183987
0.0454701
0.0115305
0.00349463
1.09795
0.300227
0.0800929
0.0211006
0.00654005
3514.9
8438.39
3643.71
8358.98
4029.55
8212.35
4531.23
8213.9
4379.12
8060.46
1439.89
2592.87
2632.69
4621.3
649.806
1193.94
110.303
313.443
22530.8
6368.15
2121.05
964.438
625.288
6285.14
2015.82
747.448
334.547
205.085
22117.9
6230.68
2082.06
946.541
616.427
6397.15
2198.74
766.052
345.231
217.515
20881.8
5888.9
1974.34
900.445
587.215
6179.54
2115.56
736.762
331.947
209.629
18913.6
5345.08
1803.13
826.441
539.837
5907.24
1993.93
689.549
309.344
194.451
15778.5
4485.87
1528.72
705.942
462.491
5465.34
1817.56
627.088
281.389
176.785
7608.75
2290.4
802.568
375.425
246.631
2620.17
888.534
306.979
137.996
87.3621
11226
3310.54
1145.27
532.067
349.079
3885.69
1303.71
453.66
205.473
130.242
4493.36
1370.5
484.49
228.023
150.033
1457.21
511.514
176.258
79.5149
50.8255
1532.94
467.991
166.561
78.8445
52.006
531.457
171.949
56.4315
27.839
16.0945
-1545.52
-541.807
5790.67
-1602.31
866.417
926.909
2567.82
3351.09
2173.49
4184.78
3876.04
5998.29
5065.06
6253.51
2538.01
3377.15
2497.96
2971.75
1300.11
1351.08
1530.82
797.942
261.158
37.6063
9.77032
9.08452
110.242
11764
4074.07
3849.95
3075.42
728.286
523.074
2222.83
250.731
292.927
244.331
60.6597
6256.04
3031.27
1311.41
813.363
1964.9
1112.34
385.296
608.256
-15.1479
110.526
579.366
474.939
6782.6
2486.33
3951.15
1619.67
1844.34
3492.91
742.486
83.6844
720.668
843.918
523.112
343.637
226.29
120.122
520.255
339.529
211.651
120.114
43.6912
212.582
159.005
106.388
60.0628
19.3665
31.7556
24.6733
17.0652
9.8487
3.19819
7.74567
5.63503
3.69166
2.06541
0.663891
7.18185
5.2189
3.42561
1.92517
0.622645
91.2239
69.5416
47.3932
27.1309
8.80627
7058.71
4719.93
2990.4
1828.95
1033.66
2749.89
1782.49
1164.42
675.792
264.071
2583.62
1719.93
1099.22
625.053
235.675
1980.91
1219.58
760.435
425.537
145.77
487.014
294.713
187.708
105.754
35.9039
423.045
314.912
210.658
119.687
39.2178
1632.08
1124.91
707.787
390.108
131.675
234.955
188.936
129.742
75.3084
25.2581
234.499
173.803
116.331
66.2966
21.7625
211.88
166.036
115.45
67.3806
22.3755
42.9211
28.3352
17.3612
9.42773
3.06736
3815.16
2636.72
1704.22
1058.87
600.035
2061.99
1381.76
893.625
509.856
187.969
1029.13
749.054
493.462
278.394
91.9331
636.531
461.741
303.061
170.251
55.7973
1473.11
1032.35
660.5
366.521
122.02
881.522
645.149
425.908
239.794
77.9007
303.762
221.664
146.139
82.2345
26.7816
488.415
360.829
239.231
134.483
43.4259
-11.5723
-7.55852
-3.99129
-1.58575
-0.323771
89.4024
66.6224
44.6128
25.3097
8.21151
460.401
337.08
222.071
124.549
40.3832
381.485
282.202
187.475
105.623
34.1957
3772.94
2231.44
1448.17
901.005
495.566
1642.54
1072.26
668.442
376.844
137.115
2499.76
1681.95
1062.34
610.943
229.589
1121.98
764.638
483.648
273.236
96.9561
1399.58
990.756
639.841
357.335
117.811
2391.45
1563.28
998.711
564.011
194.244
590.876
433.167
285.644
160.207
51.8103
67.5238
50.1794
33.5129
18.973
6.14533
569.108
415.3
273.559
153.799
50.0527
-47070.9
-74284.7
-39372.7
-59981.1
-40039.7
-79262.6
-47629.5
-100758
-30356
-21194.3
-32931.6
-21208.2
-26908.7
-17446.2
-32084
-17646.7
-41127.7
-32784.3
-57923.5
-43883.1
-35492.7
-29960.9
-48091.5
-37933.6
-27735.6
-29352.8
-23014.5
-23044.1
-28615.2
-25843.4
-60921.8
-16840
-24319.4
-9363.86
-71145.9
-20038.8
-21208.3
-8444.78
-47524.5
-14983.9
-25290.2
-9948.09
-43918.2
-13519.8
-23355.4
-9708.75
-28563.3
-10609.2
-22354.8
-10219.3
-24782.1
-9258.1
-22918.5
-11858.1
-19711.5
-8203.63
-24478.8
-8969.34
-8563.51
-3113.27
-17594.8
-12554.2
-15190.4
-9681.68
-14341.1
-11594.2
-12559.7
-8790.98
-16364.5
-10225
-19557.3
-13547.1
-10525.6
-6610.04
-5868.49
-3965.17
-8742.6
-6009.8
-4910.73
-3671.59
-11199.8
-6702.36
-6261.87
-3647.3
-15239
-8218.31
-11051.7
-13041.2
-19786.7
-14161
-15834.8
-22106.3
-10206.1
-4835.55
-6644.99
-7476.68
-5487.74
-2322.41
-3139
-2874.15
-24423.1
-31284.1
-14398.8
-36941.2
-25310.3
-29664.4
-16625
-37707.4
-25300.5
-26379.8
-19853.1
-35646.1
-14963.9
-11463.2
-17899.5
-21121.7
-22351.4
-15070.8
-19169.5
-24351
-28690.2
-43034.3
-10849.5
-12749.9
-15135.4
-19306.6
-30481.9
-30391.6
-21090
-39733
-30467.4
-27987.9
-20524.9
-39121.1
-30350
-24321.9
-19164.8
-36430.7
-30023.7
-12107.6
-9462.25
-14749.8
-11978
-17908.2
-14984.3
-21459.9
-18625.7
-33034.8
-30003.9
-10586.9
-9439.41
-12945.5
-12620.3
-16064
-16498.5
-20642.8
-21534.1
-29333.2
-30470.9
-10654.2
-7933.84
-7579.31
-8121.66
-10799.9
-12086.2
-7952.74
-10868.5
-8085.51
-8681.36
-11854.2
-9075.11
-2653.95
-5360.48
-1254.54
-1907.1
-4267.91
-7261.23
-1566.34
-2420.91
-2406.89
-5480.85
-1128.47
-1939.82
-9063.15
-7832.03
-11117.6
-6471.19
-14280.5
-10558.3
-18115.9
-11570.7
-3315.78
-4328.89
-5717.39
-3072.76
-2891.6
-2978.23
-3646.18
-2534.39
-12874.4
-4400.18
-17821.9
-5993.89
-13076.1
-4602
-18176.2
-6411.57
-12816
-4448.36
-18839
-7003.12
-5884.66
-1905.09
-8270.13
-2999.28
-10525.3
-3920.69
-13583.1
-4941.09
-19832.5
-7596.78
-6598.28
-2313.6
-8756.78
-3748.58
-11632.8
-4874.59
-15579.8
-6280.04
-20881.3
-7744.95
-9855.96
-8839.23
-8046.76
-7560.19
-16870.8
-12701.1
-14172
-11520.4
-6011.14
-4195.95
-2567.73
-1588.34
-5887.89
-4630.2
-2627.03
-2206.99
-4999.96
-6638.52
-5551.03
-6922.92
-5082.33
-3991.23
-6068.41
-2472.89
-11329.8
-4211.98
808.561
-1594.72
-2913.53
-2128.45
-1418.15
-1322.84
-2388.72
-1076.98
-973.559
-404.384
-2666.73
-1185.7
-1495.6
-568.549
-3210.1
-1426.34
-2607.04
-1057.1
-2269.69
-815.704
-995.181
-272.703
-7220.45
-6806.17
-6034.08
-4917.98
-10476.8
-9700.15
-9016.99
-7028.93
-3825.32
-3277.05
-4897.94
-4543.21
-4196.58
-3243.16
-2478.27
-2012.98
-6233.14
-4663.42
-3659.28
-2884.8
-2623.78
-2156.53
-1487.77
-1369.97
-2214.42
-962.964
-2117.87
-934.31
-2771.7
-1209.57
-2892.38
-1292.72
-1459.8
-675.67
-1376.23
-554.027
-693.567
-264.043
-829.811
-241.307
-2961.12
-2969.39
-1480.83
-1583.02
-3099.14
-3179.2
-1511.58
-1586.28
-3519.71
-3338.2
-1606.9
-1560.21
-5113
-8050.59
-3775.63
-2408.17
-1128.31
-11024.6
-7396.34
-5516.44
-3804.14
-1798.62
-8629.79
-6284.04
-4283.86
-2832.77
-1198.64
-2666.53
-2030.49
-1643.27
-1841.09
-2831.25
-2126.91
-1654.11
-1839.98
-3113.1
-2470.34
-1646.32
-1837.87
-9634.2
-7169.71
-7372.22
-5335.64
-5133.16
-3758.13
-3499.55
-2653.9
-1605.6
-1733.06
-7462.8
-6621.73
-5303.22
-4686.74
-3606.45
-3158.13
-2394.74
-2137.91
-1038.76
-1384.47
-4327.37
-2962.84
-3163.13
-1735.31
-7085.71
-5485.99
-5422.7
-3982.37
-1997.94
-1035.07
-2716.16
-1880.69
-3273.28
-1382.71
-1050.39
-442.991
-4288.49
-2772.24
-1411.78
-926.434
-2239.27
-846.906
-713.099
-260.997
-1131.61
-809.135
-554.331
-695.031
-1578.55
-1234.04
-699.588
-887.92
-1303.46
-610.598
-419.673
-479.816
-259.358
-70.0173
212.594
37.1962
-1271.21
-408.129
-1136.39
-148.083
-1383.39
-482.455
-1164.65
-166.501
-1521.35
-499.664
-1128.75
-144.407
-4228.89
-1292.99
-3168.84
-988.447
-2422.62
-815.042
-1595.46
-475.587
-1074.35
-179.311
-4588.13
-1338.75
-3175.89
-833.116
-2172.67
-565.71
-1442.8
-329.973
-1064.8
-184.454
-364.127
-100.699
-20.5105
-0.962943
-146.374
-40.79
-9.37244
-1.29807
-386.214
-105.54
-23.0022
-2.69533
-168.997
-45.2421
-16.008
-5.20974
-424.411
-113.039
-30.387
-7.23673
-273.988
-67.8197
-7.9387
1.25639
-128.23
-26.6717
12.9362
9.16647
-24.7335
2.9635
8.99986
4.0268
-324.622
-84.4868
-10.2465
5.38994
-244.604
-58.3071
-14.4785
1.57975
-422.741
-110.04
-25.8119
-2.62966
-335.125
-80.3454
-21.586
1.9625
-209.376
-52.169
-5.08642
3.34684
-153.524
-35.5981
-9.13353
0.193992
-69.3558
-12.3745
1.07919
1.23509
-47.9394
-8.15521
-1.59593
0.214093
-476.136
-127.972
-26.6971
-0.132496
-484.201
-122.213
-38.4352
-2.21019
-471.736
-125.176
-25.8669
0.353819
-472.47
-117.998
-37.8374
-1.81299
-461.162
-119.737
-31.5359
-3.25701
-446.79
-110.049
-39.9853
-3.55236
-356.488
-90.8871
-30.1651
-7.94626
-480.771
-115.784
-48.5847
-5.45583
-319.867
-75.912
-25.6634
-1.42938
-375.01
-83.871
-31.1424
-4.08898
-147.706
-30.1305
-8.36621
-2.1171
-371.02
-82.6192
-30.5881
-3.8107
-147.84
-30.0243
-8.65748
-2.30688
-353.874
-78.1423
-31.163
-4.01727
-139.862
-28.0613
-8.24519
-2.2538
-317.876
-70.4884
-32.3616
-4.49812
-128.609
-25.8045
-9.18784
-2.45771
-276.739
-61.3918
-28.5908
-4.33458
-99.3633
-20.0182
-9.28927
-2.40369
-180.795
-38.3872
-10.3718
-0.352467
-65.9918
-12.3684
-3.53328
-0.596264
-231.044
-50.0198
-18.0471
-2.06395
-75.4184
-14.59
-6.13928
-1.47574
-115.216
-23.1402
-4.84311
0.392224
-44.8573
-7.54405
-0.857339
0.121736
-36.3778
-4.67997
-0.559629
0.620401
-12.5406
0.188375
0.942952
0.596556
-0.252914
-0.0421835
-0.00594338
-0.00056659
6.08318e-05
-0.139904
-0.0196364
-0.00242664
-0.00015496
6.49483e-05
-0.308732
-0.035233
-0.00240702
0.000569425
0.000470384
-0.1919
-0.0106132
0.00154375
0.00113687
0.000542499
-0.221449
-0.00593058
0.00494437
0.00253881
0.00112741
0.135174
0.049256
0.0180963
0.00616508
0.00236281
0.467133
0.115214
0.0349202
0.0106601
0.00379094
0.728917
0.214298
0.0636398
0.0185558
0.00631342
0.213402
0.0540211
0.0179297
0.00586366
0.00219519
0.258721
0.0651414
0.0189711
0.00576391
0.00208013
-0.0444133
0.0158041
0.0090668
0.00349689
0.0014192
0.240484
0.0473227
0.0136538
0.00432179
0.0016272
0.340985
0.0957486
0.0298398
0.00916212
0.00326064
0.297646
0.0952363
0.0288142
0.00856702
0.00298987
0.530451
0.172369
0.0521507
0.0152507
0.00518883
0.395997
0.138399
0.04267
0.012536
0.00427213
-0.173593
-0.0370164
-0.00595001
-0.000720856
-1.74801e-05
-0.0590147
-0.0144095
-0.00245337
-0.000319953
-1.80732e-05
-0.199895
-0.0364598
-0.004565
-0.000186775
0.000189107
-0.0698449
-0.0150631
-0.00215624
-0.000170277
4.5147e-05
-0.199868
-0.0200427
-8.93112e-05
0.000946935
0.000544998
-0.108207
-0.0119251
-0.00034779
0.000438118
0.000275005
-0.0914251
0.0033417
0.00531077
0.00240126
0.00104679
-0.0970204
-0.00490079
0.00195098
0.00118965
0.000564369
0.124966
0.0290581
0.00988339
0.00344515
0.00137367
-3439.02
-7371.44
-3636.96
-7436.1
-4112.11
-7540.45
-4572.56
-7719.25
-4362.82
-7651.18
-1654.47
-2742.26
-2755.01
-4605.68
-899.322
-1389.29
-370.557
-520.589
-22958.8
-6481.04
-2147.18
-969.892
-626.465
-6353.5
-2049.56
-756.903
-336.593
-205.473
-22515.3
-6335.19
-2106.36
-951.604
-617.542
-6474.43
-2235.76
-775.735
-347.374
-217.988
-21209.8
-5977.11
-1995.06
-904.802
-588.193
-6257.86
-2150.18
-745.737
-333.938
-210.082
-19162
-5413.6
-1819.39
-829.882
-540.622
-5975.51
-2023.76
-697.318
-311.063
-194.842
-15959.8
-4534.6
-1540.13
-708.337
-463.037
-5516.96
-1841.51
-633.408
-282.793
-177.109
-7704.56
-2310.92
-806.882
-376.289
-246.827
-2681.36
-904.609
-310.622
-138.743
-87.532
-11362
-3342.72
-1152.39
-533.521
-349.41
-3935.03
-1321.6
-458.155
-206.444
-130.467
-4557.36
-1383.29
-487.083
-228.542
-150.155
-1523.25
-526.712
-179.442
-80.14
-50.9603
-1579.54
-476.735
-168.277
-79.1763
-52.08
-598.363
-186.638
-59.3994
-28.4265
-16.229
-1972.5
-3548.65
-10135
-1572.44
-10380.7
-4645.78
-10046.3
-4882.32
-18819.7
-10078
-20959.1
-11002.9
-2.19852
-6.90764
-11.9014
-14.8116
-6.15582
43.9399
-5.14712
-16.6675
-30.5966
-43.4236
-40.9011
9.70684
-1.26445
-1.03843
-3.86865
-3.46748
-5.78463
-6.27006
-2.82867
-6.60109
6.39287
-5.92343
33.5938
5.31733
210.415
533.873
1055.1
764.641
648.885
218.283
158.553
452.923
862.509
1125.8
968.677
376.873
-1.88903
-1.50002
-1.06074
-0.62287
-0.204348
-5.93006
-4.7042
-3.32344
-1.95022
-0.639597
-10.1933
-8.06341
-5.68031
-3.32558
-1.08928
-12.6605
-9.99204
-7.02287
-4.10419
-1.34295
-5.36795
-4.33763
-3.11961
-1.85516
-0.612554
36.4006
27.6806
18.7503
10.6507
3.43412
-4.40445
-3.47973
-2.44757
-1.43093
-0.468286
-14.2399
-11.2295
-7.88449
-4.60339
-1.50548
-26.0422
-20.4442
-14.2892
-8.31296
-2.7134
-36.7757
-28.7009
-19.9434
-11.5501
-3.7611
-34.4576
-26.7316
-18.47
-10.652
-3.46148
7.89555
5.86855
3.88218
2.16398
0.690806
-1.09021
-0.869544
-0.617824
-0.364229
-0.119755
-0.897457
-0.717955
-0.511764
-0.302518
-0.0996167
-3.33289
-2.65583
-1.8853
-1.11069
-0.365047
-2.99218
-2.38918
-1.69962
-1.00305
-0.329992
-4.97796
-3.96145
-2.80822
-1.65249
-0.542742
-5.39499
-4.29207
-3.04139
-1.78903
-0.587472
-2.48123
-2.0202
-1.46485
-0.877121
-0.290678
-5.67469
-4.50885
-3.19009
-1.87383
-0.614779
5.24386
3.93212
2.61995
1.4664
0.468776
-5.10672
-4.06762
-2.88203
-1.69337
-0.555464
27.8487
21.1991
14.3773
8.17566
2.63782
4.29247
3.16541
2.08015
1.15505
0.368316
173.243
131.025
88.4303
50.1589
16.1789
432.499
322.055
214.715
120.964
38.988
831.957
605.464
397.323
222.416
72.0116
589.56
422.236
275.651
154.616
50.1469
524.635
379.289
246.295
136.236
41.3809
189.172
139.9
91.8497
50.8052
14.6533
130.4
98.4813
66.3706
37.6046
12.1219
368.273
275.027
183.706
103.556
33.3471
690.976
509.005
336.567
188.777
60.8056
888.849
646.515
423.931
236.979
76.4257
764.753
554.406
362.139
201.818
64.7044
299.139
217.418
142.35
79.4878
25.4251
2.2208
6.96494
12.0662
15.2666
7.36776
-40.6253
5.17452
16.7233
30.7194
43.666
41.3974
-8.45906
1.28362
1.05614
3.92287
3.52462
5.94586
6.44823
3.27999
7.00472
-4.96584
5.52212
-28.2513
-3.26622
-202.832
-520.707
-1033.07
-756.165
-666.129
-252.827
-155.529
-447.34
-854.432
-1122.23
-977.551
-395.854
1.91228
1.52288
1.0805
0.636389
0.20916
5.98605
4.7558
3.36575
1.97813
0.649358
10.3476
8.19936
5.78724
3.394
1.11282
13.0748
10.3452
7.29183
4.27206
1.39996
6.44735
5.23337
3.78326
2.26031
0.748492
-33.517
-25.3558
-17.0793
-9.65562
-3.10477
4.43709
3.51536
2.4807
1.45457
0.476869
14.3028
11.2951
7.94373
4.64488
1.5204
26.1748
20.5778
14.4063
8.39347
2.74212
37.0273
28.9455
20.1518
11.6908
3.81081
34.9372
27.1666
18.8199
10.8791
3.54017
-6.79357
-4.96369
-3.21924
-1.76297
-0.556936
1.10892
0.886799
0.631999
0.373601
0.123037
0.914241
0.732966
0.523766
0.310303
0.102317
3.38344
2.70018
1.92009
1.13292
0.372696
3.04467
2.43447
1.7346
1.02513
0.337542
5.12391
4.08515
2.90199
1.71084
0.562525
5.55563
4.42759
3.14364
1.85243
0.60893
2.87928
2.34701
1.70454
1.02233
0.339187
6.03332
4.80599
3.41013
2.0082
0.659875
-3.99751
-2.92168
-1.88892
-1.02855
-0.323422
4.79969
3.86159
2.76523
1.63922
0.540465
-23.2329
-17.5088
-11.7472
-6.62001
-2.12485
-2.4971
-1.70741
-1.02395
-0.521901
-0.157906
-166.788
-125.956
-84.8868
-48.0982
-15.5065
-421.439
-313.491
-208.811
-117.571
-37.8897
-813.152
-590.548
-386.769
-216.223
-69.9861
-578.429
-410.207
-264.986
-147.348
-47.54
-532.828
-380.601
-243.737
-133.05
-39.9711
-211.418
-151.528
-95.9959
-51.2757
-14.4119
-127.856
-96.5124
-65.0167
-36.8286
-11.8707
-363.646
-271.508
-181.329
-102.217
-32.9183
-684.053
-503.5
-332.665
-186.483
-60.0523
-884.742
-642.297
-420.262
-234.495
-75.5425
-769.774
-556.106
-361.728
-200.792
-64.2103
-311.857
-224.344
-145.001
-79.9527
-25.3701
-1659.27
-862.003
-240.911
-24.5009
11.0303
18.2024
-78.5409
-10673.8
-3077.49
-3269.36
-1619.94
-304.096
-2085.72
-91.2355
409.879
65.7161
-5822.06
-2695.41
-1010.87
-685.352
-1855.73
-992.234
-351.33
-550.479
156.678
-28.037
-462.338
-382.911
-6702.84
-2482.98
-3806.08
-1573.49
-1770.5
-3245.35
-685.909
-25.5791
-623.165
-911.368
-549.823
-347.96
-221.643
-116.946
-558.96
-358.239
-217.071
-119.525
-42.67
-195.287
-145.353
-96.7864
-54.45
-17.5306
-20.2545
-15.3111
-10.2769
-5.7813
-1.84849
10.1242
8.55588
6.35128
3.8399
1.27597
16.144
13.2084
9.55432
5.68134
1.87158
-63.6986
-47.431
-31.5881
-17.7757
-5.72485
-6453.7
-4362.12
-2793.87
-1752.32
-1055.23
-1990.31
-1225.87
-800.586
-477.937
-200.037
-2163.94
-1420.61
-906.456
-520.769
-204.452
-1030.53
-622.065
-399.845
-231.715
-81.4276
-236.712
-170.562
-111.589
-62.9188
-20.8449
-1541.85
-1076.04
-684.073
-380.202
-129.269
-65.0104
-43.4587
-27.1065
-15.0733
-5.1006
320.826
230.89
149.194
81.9558
25.9524
58.7246
47.1718
32.9927
18.944
6.05652
-3448.45
-2366.43
-1528.18
-967.229
-580.329
-1784.92
-1167.14
-746.135
-426.318
-161.824
-779.073
-557.886
-363.369
-204.461
-68.2273
-530.175
-380.292
-247.461
-138.548
-45.6077
-1395.36
-982.028
-631.648
-352.486
-118.095
-775.15
-558.61
-363.777
-203.069
-65.8234
-274.068
-197.564
-128.73
-71.8516
-23.3525
-439.829
-323.215
-213.325
-119.612
-38.6167
130.543
99.6658
67.5927
38.3006
12.2718
-19.7409
-12.3855
-6.96591
-3.50098
-1.10368
-363.671
-263.851
-172.745
-96.6834
-31.4422
-304.253
-222.563
-146.476
-82.0943
-26.5813
-3697.07
-2165.07
-1395.36
-868.615
-486.512
-1632.88
-1058.72
-654.838
-366.971
-133.462
-2342.7
-1543.42
-956.927
-546.461
-205.677
-1074.44
-720.495
-448.533
-250.949
-89.3311
-1336.15
-940.326
-604.321
-336.659
-111.095
-2185.12
-1400.44
-885.153
-498.771
-173.591
-543.283
-396.22
-260.093
-145.487
-47.0435
-18.0537
-11.3027
-6.28688
-3.09789
-0.955714
-485.786
-349.608
-227.519
-127.014
-41.3294
-15.1501
-45.1638
-84.0012
-140.663
-224.075
-342.122
-34600.9
-30732.7
-27839.3
-31658.5
-25565
-20211
-21849.1
-16409.7
-31983.6
-29503.1
-29551
-29015.7
-26111.1
-22306.4
-28036.6
-29227.6
-26270.1
-22893
-25753.4
-22142.3
-18536.6
-18676.2
-14717.3
-29399.5
-27750.7
-27169
-26128.6
-23622.5
-21631.3
-23813.4
-23621.2
-21703.3
-18409.5
-20175.9
-18813.8
-16067.4
-15712.6
-13078.4
-25155.1
-24747.6
-23412
-23111.1
-20390
-18543.9
-20782.6
-17047.1
-16016.5
-13168.8
-14062.4
-14287.9
-12658.8
-11731.1
-10246.4
-18980.9
-19894.3
-17861.3
-18771.6
-15927.5
-14325.4
-16677.9
-11082.4
-10550.6
-8497.01
-8951.2
-9606.82
-8581.29
-7741.14
-6867.35
-12680.6
-13191.2
-12032.7
-12443
-10916.7
-9807.54
-11206.9
-4011.94
-3846.32
-3070.19
-3212.84
-3546.11
-3232.21
-2831.62
-2545.67
-4680.77
-4935.84
-4421.53
-4512.23
-4068.12
-3686.93
-4163.53
-11667.5
-11298.4
-18259.5
-19804.1
-10565.2
-9145.53
-15794.9
-12504.8
-7755.64
-4940.56
-7733.25
-5129.27
-7606.48
-7364.43
-5469.89
-11451.5
-10751.9
-16350.8
-17910.6
-9798.72
-8610.92
-14028.2
-11604.1
-7711.28
-4122.56
-7571.52
-4422.35
-6839.48
-6656.78
-4941.87
-10168
-9550.85
-13776.5
-14899.7
-8733.09
-7791.07
-12068.3
-10209.1
-6256.08
-3751.4
-6168.78
-4083.39
-5575.2
-5572.46
-4441.55
-7815.73
-7382.59
-10154.5
-10807.4
-6790.8
-6075.14
-9132.71
-7935.71
-5233.83
-2952.98
-5105.34
-3211.13
-4627.17
-4568.14
-3484.07
-5144.9
-4885.88
-6583.92
-6938.04
-4453.55
-3933.7
-6018.09
-5269.76
-3423.45
-1959.15
-3342.11
-2140.95
-3043.88
-2969.99
-2285.83
-1863.83
-1774.49
-2376.84
-2492.34
-1618.37
-1427.86
-2190.7
-1935.09
-1168.46
-701.148
-1180.01
-768.911
-1101.83
-1067.15
-813.891
11208.4
35879.4
9070.48
37363.2
6571.48
37735.2
9825.68
55152.9
11956.4
75000.6
12209.6
56457
12103.3
47879.1
12651.5
42515.2
7549.84
4880.87
20518.5
12311.4
7118.46
3750.27
21175
10272.7
8928.22
7038.77
27984.6
21247.8
6756.73
5451.17
27965.5
21858.8
16048.7
6911.92
13892.3
6354.89
6920.42
15649.3
50623.8
13324.2
18256
5550.57
62018.5
16288.3
16026.2
4793.11
38053.4
11582.5
19414.6
6436.79
34720.5
10857.4
13118
6497.47
16404.2
6665.38
14318
7680.01
16152
6498.06
17129.6
10027.2
13704.2
6319.42
19243.6
7252.56
6481.66
2368.42
19765.6
13660.1
11683.3
8238.42
18566.6
14651.6
9924.74
7852.89
12524.6
8695.96
18935.2
13084.9
7284.42
5079.77
3153.28
2504.4
6017.79
4750.08
2487.63
2375.97
7930.88
5237.49
3633.69
2294.65
12261.1
7134.71
9841.75
12445.6
17595
13166.6
14838.2
21445.1
7727.77
3956.77
5548.82
6993.69
3524.22
1605.97
2149.79
2461.88
18742.3
32735.4
12407.3
36633.9
21353.5
31426.6
15053.6
37715.2
23232.8
27537
18779
35868.5
20141.1
19686.7
18646.3
19128.6
21219.8
18859.7
21796
25483.9
28996.4
43093.1
15764.1
15184.7
15511.5
18827.4
30050.9
37428.4
32153.6
43307.4
39950
33811.7
30036.3
42227.6
38677.8
28516.6
26758.2
38901.9
36662.4
13511.7
10261.1
16417.5
14161.6
20522.5
18740.2
24618.6
23569.6
34855.1
34665.9
12398.8
10767.8
14840.9
15177.5
17843
19804.4
22069
25119.1
30052.4
34062.6
11816.2
8527.29
7428.55
8110.03
12885.8
13303.4
8288.64
11409.5
7621.93
8393.52
12179.4
9300.11
2005.77
5014.4
467.739
1430.28
3865.5
7224.12
932.315
2132.3
1690.97
5019.57
330.097
1424.24
8541.02
7497.7
10689.6
6230.64
14139.1
10615.3
17815
11686.6
2705.09
3905.42
5296.75
2774.55
2235.42
2525.76
3223.48
2216.72
24735.2
14413.1
4532.04
27945.2
15446
4924.26
23490.7
14063.3
4696.42
27069.1
15233.8
4850.97
21037.4
12599.8
4044.49
25816.1
14898.4
4789.96
7047.26
4152.8
1280.77
11239.9
7129.12
2333.35
15451.5
9894.27
3264.19
19536.8
12054.4
3873.71
25119.4
14901.3
4906.04
7954.7
4751.51
1643.26
11617.1
8013.99
2946.72
15546.3
10721.2
3838.92
20037.7
13252.6
4594.92
25437.3
15245.9
5208.73
295.632
1970.7
2865.65
4054.11
2896.2
2938.22
6994.04
6248.61
518.404
689.31
551.426
712.948
328.766
980.825
662.748
1317.65
2470.39
1254.49
3362.4
2006.56
1559.37
2579.72
3314.67
-175.333
7517.88
987.809
-3128.37
-972.799
934.071
-13.9967
-30.8446
-602.493
6494.76
2266.47
1690.85
819.952
6649.51
2319.76
2146.34
1003.14
6738.13
2454.58
2944.14
1473.26
1783.36
876.055
-18.5432
107.011
12273.7
10028
5482.21
5134.84
15558.3
13571.2
7457.86
6761.57
3953.53
3692.13
8947.13
6668.85
2836.13
2814.56
959.039
1374.8
4196.95
3834.02
1662.45
1903.67
1846.24
2022.88
441.042
1032.31
2803.82
1304.74
2509.01
1146.17
4834.28
1867.26
4031.39
1713.71
1253.04
751.379
1392.45
622.37
168.282
199.916
690.351
239.891
7137.79
3682.32
2675.42
2061.29
7240.19
3984
2661.14
2069.1
7962.07
4658.51
2717.86
2114.41
13282.3
16938.9
10127.9
5436.9
2003.59
15226.6
11757.4
8991.7
5928.29
2433.78
14347.4
10830.3
7139.26
4311.41
1703.39
2093.39
1222.88
1478.31
1090.34
2443.52
1406.18
1594.57
1177.07
3111.55
1849.5
1800.53
1346.34
10822.1
7133.97
8234.78
5051.05
5205.39
3466.59
3740.27
2473.52
1828.73
1498.61
9088.18
7256.38
6628.09
5045.06
4534.64
3423.94
2965.41
2297.84
1372.74
1398.6
5985.16
3705.84
3716.99
2185.99
9290.75
6440.79
6020.19
4534.41
2425.19
1375.45
3762.44
2403.86
3280.61
1486.66
796.779
382.347
4144.28
2842.24
975.932
782.796
2312.08
947.673
595.149
246.666
1397.43
1017.91
678.226
789.413
2136.16
1546.57
921.185
1011.98
1385.16
685.882
474.273
522.455
231.647
79.5824
-201.82
-23.8829
650.48
251.068
67.5816
594.523
165.87
41.9491
779.863
315.645
89.3709
657.22
192.939
50.5929
1000.02
426.321
115.365
764.633
234.674
59.127
4365.8
2361.77
683.883
2836.82
1401.17
403.324
1958.11
913.854
264.473
1339.57
578.303
152.658
871.866
267.565
60.5258
5061.79
2615.64
817.857
3337.99
1571.02
462.883
2222.29
1006.79
288.604
1459.26
611.52
165.007
956.339
268.976
67.1561
621.503
157.159
33.5195
4.41401
254.11
65.7142
14.9082
2.58769
638.709
163.663
36.8312
6.35748
296.061
78.0977
23.5717
6.8937
656.991
169.958
44.6695
11.0095
429.553
116.78
22.6241
3.24022
209.912
63.8059
0.708791
-4.5518
68.1986
30.6453
4.87466
0.731188
447.641
123.937
23.0299
-0.981967
331.542
88.9391
24.9246
2.34881
595.98
157.005
39.0565
6.74257
473.749
122.249
34.5794
2.98492
275.591
81.4398
15.8961
0.456616
200.881
56.8532
17.4735
3.09306
102.411
35.5234
8.88212
2.44885
74.7299
24.3572
8.79592
2.7676
746.455
189.913
42.3454
4.92429
647.944
168.159
49.1806
6.88383
733.486
186.599
41.8072
4.62292
629.468
162.073
48.3364
6.46652
705.001
178.78
46.361
7.65442
598.582
151.672
49.5404
7.9154
577.279
148.648
45.4871
12.5234
647.755
162.144
59.9489
10.6792
474.875
121.133
39.3109
6.90803
436.473
110.616
37.6358
7.40885
158.065
38.7194
11.5179
3.32206
460.764
115.478
38.4478
7.4101
168.943
40.9829
12.3555
3.66775
489.693
120.535
40.5618
7.78936
181.673