/*--------------------------------*- C++ -*----------------------------------*\
  =========                 |
  \\      /  F ield         | OpenFOAM: The Open Source CFD Toolbox
   \\    /   O peration     | Website:  https://openfoam.org
    \\  /    A nd           | Version:  11
     \\/     M anipulation  |
\*---------------------------------------------------------------------------*/
FoamFile
{
    format      ascii;
    class       volScalarField;
    location    "0.4";
    object      gradTx;
}
// * * * * * * * * * * * * * * * * * * * * * * * * * * * * * * * * * * * * * //

dimensions      [0 -1 0 1 0 0 0];

internalField   nonuniform List<scalar> 
5712
(
-9902.17
-12730.7
-22687.5
-33936.1
-34865.6
-59891.8
-25960.2
-65320.9
-20579.1
-45077.9
-30777.9
-47330.8
-27072.2
-36534
-12098.1
-14127.1
-23745.9
-27062.9
-29772.8
-29743.7
-22434.4
-26603.1
-32660.3
-29038
-8601.7
-6966.75
-10675
-7676
-20284.7
-17174.3
-34052.8
-25964
-26144.8
-27285.1
-30747.5
-30338.7
-11994.5
-9000.06
-59046.2
-78891.5
-39248.1
-47905
-75554.2
-98368.6
-39842.3
-45744
-45747.2
-64506
-41376.3
-54116.1
-25004.8
-39441.1
-5197.54
-1813.73
-5429.96
-2015.99
-15569.1
-6501.96
-20967.6
-7996.58
-15908.1
-6183.79
-16041.9
-5389.36
-26619.8
-8838.57
-34309.4
-12029.6
-34327.2
-18087.9
-32335.3
-19337.3
-29754.1
-19091.7
-27151.3
-19226.3
-27938.7
-17579.8
-27781.4
-15569.2
-33992
-21117.1
-34400.6
-21250.7
-29304.8
-20217.3
-29886.7
-20168.3
-30302.9
-19725
-31485.6
-20195.4
-29699.6
-14124
-16029.4
-21016.9
-29365.4
-15497.3
-14254.1
-21308.6
-31639
-13949.4
-17796.3
-21150.1
-33376.6
-14259.1
-19100.6
-21951.4
-6592.14
-7137.77
-2332.79
-4893.72
-18756.2
-19592.4
-7901.37
-14858.5
-23647.3
-25118.6
-13225.5
-22748
-12148.5
804.388
-17890.8
-25923.1
-16498.7
1581.38
-5389.18
-16153.8
-29146.4
-25858.1
-12507.3
-17263.6
-17949.1
-18087.9
-29929.7
-5644.25
-4056.93
-3442.52
-3125.7
-15347.8
-11171
-10496.4
-9150.27
-18313.7
-12936
-13987.7
-11360.6
-4384.84
-5603.73
-10496.8
-10610.7
-17477.7
-14494.5
-21444.7
-16421
-18797.3
-14654.6
-9327.43
-7650.18
-13704.8
-8023.84
-14881.8
-8185.05
-15341.5
-8280.36
-20880.4
-11799.9
-12291
-3246.9
-11617.3
-9213.82
-12959.5
-13294.3
-14532
-17194.2
-11371.2
-8894.06
-12853.9
-1860.31
-10700.5
-14931
-10294.7
-16179.1
-14465.1
-21482.9
-14619.6
-23067
-10322.2
-14953
-9819.79
-16076.6
-15284.3
-8788.87
-22505
-7853.08
-14430.2
-1225.98
-19665.2
-746.613
-15029.8
-12921.1
-23410.2
-9655.66
-13332.7
-15110
-21547
-12222.3
-2620.06
-1848.22
-1169.2
-2023.88
-1482.99
-1002.07
-7320.72
-4226.62
-2490.48
-5507.15
-3087.29
-1838.96
-7676.54
-4526.94
-3182.5
-6560.97
-3546.14
-2467.79
-3769.81
-2031.57
-1482.35
-7752.15
-3558.3
-2039.63
-9267.22
-4293.91
-2242.9
-10117.6
-5200.31
-3214.69
-9061
-4077.75
-2175.24
-10228.5
-5861.12
-3312.72
-8254.4
-4686.76
-2366.01
-9278.15
-4872.31
-2260.48
-9533.25
-4760.99
-2122.39
-12244.8
-5272.38
-1871.74
-12282.3
-15743.7
-10360.8
-12727.7
-15394.3
-21017.7
-14546.5
-19583.9
63.6843
-563.47
506.517
-194.048
-2935.69
-2857.67
-1479.26
-869.154
-1577.98
-3086.06
-10089.7
-13668.6
-5797.98
-3810.04
-12342.3
-12523.3
-20967.3
-23296
4.78427
3843.71
-8526.84
-7999.65
-6883.07
-5200.51
-944.235
-478.942
-789.403
-421.821
-2124.3
-336.177
-406.146
164.978
-8446.66
-1829.44
-6327.72
-1633.35
-8491.12
-2311.69
-10006.1
-2658.48
-10982.4
-11788.9
-10111.6
-11541.7
-18394.1
-17007
-17650.5
-16157.5
-6234.85
-7891.23
-7120.54
-7805.51
-10601.8
-11207.1
-11410.3
-11158.6
-18532.8
-15966.2
-19321.3
-15874
-6209.91
-7663.7
-6515.21
-7638.39
-154.139
-614.666
-4832.16
-1886.42
53.6765
-402.257
-4431.18
-1641.06
-414.353
-760.507
-4909.39
-2039.39
-578.716
-817.398
-4816.15
-2035.27
304.628
347.795
-155.893
-5.00264
1508.97
1367.38
11.2166
203.706
-14.0464
733.542
-903.836
-391.571
7520.8
9061.65
3371.6
2259.33
289.29
9797.74
8144.15
2427.35
3198.49
540.54
-10864.4
-7715.62
-5594.36
-4057.44
-1548.6
246.957
160.251
31.9672
32.3105
869.278
586.681
128.233
106.088
890.492
813.939
-105.761
-23.1281
3698.2
890.251
4887.66
2120.48
1478.15
698.748
1523.37
928.942
41.9373
-94.7676
-4131.62
-2236.19
-1765.11
-13.3356
-1163.73
-0.240543
-911.353
-136.339
-393.595
-247.823
-4700.35
-3353.62
-8127.32
-4315.1
-7989.85
-6271.96
-11600
-7903.39
-5232.1
-2632.11
-2849.6
-2119.35
-9352.43
-3885.16
-10043.8
-4246.58
-12738.6
-8165.12
-13375.4
-8759.88
-6226.08
-2284.31
-6772.78
-2547.47
-3004.68
-1722.49
-1109.39
-1252.88
-1906.9
-1492.76
-917.144
-1143.61
-3420.91
-1674.25
-1214.85
-1428.19
-4092.79
-1781.01
-1718.06
-1439.98
88.7847
56.0457
48.864
9.06221
18.1401
16.0725
344.038
229.113
173.191
36.054
56.5913
45.7944
546.38
369.769
265.351
-54.9546
59.7936
61.3113
115.276
133.128
-4.0872
770.53
633.289
444.999
449.674
402.553
316.002
570.12
413.172
302.297
-170.643
11.7272
26.8555
-2622.97
-1212.36
-550.232
-234.273
107.345
203.535
-137.237
150.19
205.613
-100.698
121.613
147.439
-329.225
8.01799
40.4311
-14.5423
-4.40792
-1.30411
0.110611
49.8474
14.0069
6.51087
2.88788
-55.4289
-16.4281
2.49213
3.7853
53.091
14.4301
16.8626
8.61696
-159.517
-40.4123
3.04441
8.48226
-87.6487
-19.3692
2.45249
3.56703
-102.044
-19.8613
-5.35253
-1.49288
-143.992
-32.5021
-1.65957
1.91795
-410.446
-100.515
-24.9442
-4.58503
-487.048
-114.972
-33.9944
-2.83366
-295.91
-70.1793
-12.4727
3.11987
-401.583
-92.9174
-32.4217
-4.60317
-427.757
-104.812
-19.1321
-0.378038
-536.499
-128.879
-36.0346
-1.69581
-435.864
-108.905
-17.0031
1.76661
-558.445
-136.569
-38.1899
-2.26329
-10.9041
-4.05182
-0.791282
0.489017
6.06902
0.953516
-1.09407
0.287842
-10.0675
-6.08595
1.34413
2.74586
35.0662
7.41542
-0.990419
1.28724
-171.625
-46.667
-8.51342
1.95134
-85.807
-22.91
-8.45945
1.28007
-81.9244
-17.4257
-0.174295
4.63468
-31.9632
-6.88166
-8.07668
0.868843
-341.522
-78.559
-28.0708
-0.730216
15.2715
4.27003
0.827887
0.736273
30.9342
8.87513
2.24325
0.701185
29.0916
8.47105
0.00566229
1.28155
81.9357
23.5476
5.20909
1.62773
4.37781
3.68961
-2.49434
1.4167
109.885
32.3081
7.13632
2.2211
-50.8663
-5.68714
-5.27603
1.76132
92.2222
31.9564
6.83795
2.18744
-169.174
-29.0183
-16.0957
-1.08648
30.0116
21.7332
3.23144
1.32981
-357.458
-69.5937
-25.4155
-2.91052
-113.289
-15.0357
-4.79171
-0.912685
-279.082
-49.6607
-22.0895
-2.86976
-62.2518
0.398905
-1.11762
0.182744
-411.806
-84.765
-28.4455
-3.33924
-147.207
-25.3725
-6.70671
-1.54239
-440.871
-94.3328
-30.6609
-4.23811
-168.588
-32.1234
-8.15167
-1.99775
0.258722
0.0788645
0.0214776
0.00566977
0.00174909
0.501176
0.130154
0.0342876
0.00898484
0.0027706
0.611171
0.170056
0.0465329
0.0124132
0.00386006
0.914803
0.250369
0.068856
0.0184748
0.00578078
0.712967
0.19402
0.0541664
0.0146644
0.00460502
0.98656
0.300958
0.0853839
0.023241
0.00733756
0.295506
0.118683
0.0363748
0.010274
0.00332223
0.148521
0.050332
0.0164337
0.00490941
0.00164817
0.399716
0.165782
0.05011
0.0139636
0.00445853
0.0880731
0.0549801
0.0180396
0.00518375
0.00168079
0.827463
0.242361
0.0672946
0.0180935
0.00566713
0.188521
0.0728567
0.0214611
0.00589268
0.00186316
0.124202
0.0727473
0.0250955
0.00745041
0.0024656
0.0652575
0.0375807
0.0132303
0.0039756
0.00132643
0.0515839
0.0252256
0.0104731
0.00348332
0.00122931
-0.00570622
0.00750919
0.00400086
0.00141685
0.000513314
0.206946
0.0643476
0.0173536
0.00450787
0.00137077
0.236586
0.0652259
0.0165718
0.00414465
0.00122814
0.621967
0.167294
0.0436185
0.0112434
0.00341613
0.680746
0.172021
0.0426948
0.0106456
0.00316303
0.626458
0.176247
0.0475885
0.0125643
0.00388004
0.919117
0.223829
0.0556344
0.0140264
0.0042159
0.852704
0.222309
0.0583578
0.0152486
0.00469718
0.722009
0.170118
0.0421568
0.0106725
0.0032244
0.426366
0.11738
0.0313501
0.00825677
0.00255703
-63.2011
-365.898
62.8757
-858.29
504.061
-1042.36
1403.5
-704.834
2113.26
608.98
-645.983
-1896.93
1304.06
867.479
-1428.26
-3017.94
-1929.76
-3407.52
-1532.87
-437.782
-147.32
-67.5775
-44.1441
-411.379
-245.839
-56.6639
-28.354
-19.0594
-4728.79
-1343.89
-454.032
-208.206
-136.249
-996.403
-388.377
-151.075
-70.135
-46.0818
-7967.11
-2274.8
-773.008
-355.951
-232.972
-1733.94
-686.145
-259.692
-123.016
-78.7468
-10753.9
-3092.69
-1060.75
-491.497
-322.475
-2230.16
-911.724
-348.981
-165.719
-106.179
-13596.4
-3963.61
-1376.44
-643.4
-424.389
-2742.49
-1164.3
-450.923
-216.21
-140.088
-16498.4
-5002.88
-1776.76
-841.095
-557.865
-4279.85
-1622.15
-604.827
-286.409
-185.989
-15216.7
-4568.02
-1606.51
-755.358
-499.654
-3382.2
-1382.03
-526.998
-251.08
-162.852
-17121.7
-5223.42
-1865.3
-886.068
-588.236
-4783.46
-1759.49
-647.959
-305.294
-198.563
-17884.3
-5428.37
-1943.92
-924.337
-613.758
-4969.21
-1830.35
-676.536
-309.837
-205.032
-1233.44
-10281.1
-9312.56
-3273.48
1828.1
3101.52
8227.07
12472.6
960.202
8855.76
-4279.13
843.582
1723.49
5012.69
10782.8
16061.7
16389.3
21184.3
6714.22
8870.34
-15703
-10008.9
-887.723
-380.026
-242.107
-270.823
-435.493
-8849.25
-5952.19
-5290.9
-4124.79
-2274.69
-1719.64
-2942.08
-1188.73
-973.323
-967.54
-636.443
-14491.6
-5300.53
-911.863
-1777.34
-3476.87
-1940.26
-1755.75
-1067.62
-415.942
-535.776
-869.673
-975.128
-15092.3
-8366.61
-7724.42
-4707.05
-3622.01
-4844.02
-1045.9
-880.634
-1890.75
-9342.07
-6542.38
-4175.43
-2636.83
-1462.15
-5767.13
-3466.91
-2163.62
-1238.81
-474.872
-714.596
-528.455
-349.99
-196.205
-63.1528
-313.44
-237.457
-160.435
-91.026
-29.3599
-199.137
-150.181
-100.868
-56.8938
-18.2754
-225.547
-172.526
-117.47
-66.9444
-21.6127
-356.515
-267.687
-179.249
-100.991
-32.4549
-4810.87
-2968.18
-1777.91
-1110.37
-744.147
-2680.11
-1551.1
-817.894
-473.554
-241.593
-3016.62
-1686.62
-992.526
-544.689
-209.967
-1845.98
-1022.88
-537.543
-280.242
-115.541
-940.198
-495.853
-248.942
-121.116
-42.5021
-1224.07
-806.471
-484.562
-254.723
-80.7243
-1847.22
-1105.59
-643.721
-337.058
-110.896
-709.796
-398.831
-217.934
-107.004
-33.0621
-728.316
-499.83
-309.411
-165.151
-52.0439
-697.586
-461.921
-276.435
-143.47
-44.4529
-483.264
-335.722
-209.465
-112.043
-35.1432
-8221.34
-5149.08
-3216.64
-1967.95
-1186.51
-3426.78
-2166.35
-1329.53
-733.597
-271.258
-685.567
-474.505
-297.069
-160.583
-51.41
-1355.03
-953.325
-606.876
-332.822
-107.854
-2543.73
-1742.14
-1093.11
-599.57
-200.911
-1485.53
-1051.11
-673.525
-371.631
-120.847
-1367.53
-982.247
-636.489
-353.09
-114.302
-844.373
-613.186
-399.718
-221.781
-71.2354
-328.547
-237.235
-153.116
-83.9241
-26.6244
-433.771
-321.764
-213.012
-119.008
-38.1085
-673.086
-477.421
-304.255
-165.853
-52.7946
-768.434
-555.652
-360.561
-199.256
-63.8595
-8884.51
-5977.5
-3823.49
-2336.38
-1291.52
-5109.94
-3183.31
-1991.6
-1132.48
-441.869
-4952.55
-3343.26
-2043.75
-1143.17
-433.452
-3280.26
-2159.5
-1354.72
-753.065
-262.565
-2689.32
-1868.19
-1185.54
-655.108
-218.685
-3348.42
-2195.96
-1371.29
-759.051
-261.418
-807.418
-573.595
-367.691
-202.353
-65.2842
-712.062
-527.882
-349.675
-195.686
-62.7781
-1472.52
-1055.32
-681.658
-376.886
-121.542
-8842.5
-18129.6
-18460.3
-51429.4
-17258.5
-65069.7
-9626.36
-23311.9
-17767
-14015.5
-30290.6
-25424.3
-16586.6
-14804.8
-32244.5
-24911.1
-6760.39
-5248.77
-13350.8
-9640.9
-15203
-11749.1
-41279.9
-31754.1
-24299.5
-17823.4
-26317.4
-15987.1
-2191.8
-6731.9
-62572.1
-80441.3
-38167
-47831.8
-78565.3
-99716.5
-38558.5
-45464.8
-48607
-66006
-40456.3
-54255.6
-28154.4
-41022.2
-3629.29
-1047.48
-6352.17
-2227.29
-12258.6
-5780.42
-24615.2
-9171.9
-6247.91
-3617.43
-13470.3
-4496.72
-26989.9
-8844.04
-34795.2
-12172.9
-22743
-12993.2
-27915.7
-16778.6
-18540.2
-13621.3
-22696.9
-16604.4
-24808.5
-15514.6
-19287.6
-11594.6
-32365.4
-19982.3
-34018.5
-20944.1
-27542.4
-19047.9
-29417
-19850.4
-29278.2
-18797.8
-31278.4
-19943.1
-28555.3
-13888.1
-14716
-20746.8
-25298.1
-14466.9
-11777.6
-20724.4
-31577.9
-13988.5
-17211.8
-21042.7
-33471.4
-14307.7
-18950.3
-21927
-2161.55
-2138.16
-704.166
-2973.89
-8631.36
-9313.04
-5902.18
-12477.6
-6683.86
-7913.77
-9982.22
-18969.6
-13906.7
-8759.23
-14062
-18986.4
-14885.7
-6012.71
-8119.12
-11179.5
-21214.2
-23944
-14813.3
-15216.9
-13518.7
-13688.1
-28516.7
-2368.68
-1690.76
-1591.08
-1692.56
-8062.28
-5925.46
-7582.01
-6516.72
-3469.4
-1448.4
-9714.08
-7504.54
-8496.4
-8277.42
-8803.69
-7767.54
-9980.56
-6973.18
-13554
-9977.45
-16274.2
-12136.9
-11403.9
-9142.37
-11710.9
-6569.96
-10868.8
-5337.8
-11686.6
-5739.62
-19628.3
-10427.7
-10457.8
-3016.83
-10172.5
-8643.35
-12338.2
-13439.2
-13382.2
-16660.7
-9992.7
-8367.56
-10754.3
-1508.76
-9906.65
-14525.5
-10050.4
-16045.7
-13710.8
-21006.8
-14373.9
-22888.5
-9604.59
-14647.9
-9604.47
-15980.2
-14428.5
-8489.73
-22335.8
-7794.41
-12944.2
-1162.37
-19421.5
-1223.98
-14605.5
-12746.1
-23337.5
-9598.68
-13195
-15056.9
-21523.5
-12214.9
-1460.98
-1303.32
-1327.36
-1446.44
-4349.25
-3270.37
-4541.46
-4087.8
-552.23
-1241.59
-5349.79
-5229.77
-7247.25
-5591.59
-6856.04
-4670
-5287.56
-3672.69
-7612.16
-5719.72
-9665.22
-6556.27
-12117.6
-8067.79
-6915.43
-3964.25
-6979.87
-3406.9
-7227.2
-2983.27
-9355.66
-2519.62
-6058.35
-9241.64
-5259.34
-10274.5
-10597
-12217.6
-12471
-16463.4
-857.656
-435.218
-383.518
-186.87
-3279.41
-1763.6
-2316.67
-651.276
-823.925
-1490.62
-7842.89
-7863.34
-3133.71
-2569.17
-10780.2
-11985.1
-19228.5
-22733.2
597.453
4047.56
-7106.89
-7446.2
-5994.19
-4887.45
-674.697
-490.343
-641.176
-441.042
-1215.97
-432.476
-163.927
60.992
-5921.26
-1847.46
-5183.04
-1529.95
-7513.74
-2152.29
-9577.58
-2570.29
-5640.03
-9232.67
-7832.72
-10030.1
-10109.7
-12518.6
-14195
-13939.4
-4888.66
-7036.41
-4059.47
-6704.56
-9415.03
-10442.3
-11030
-10933.6
-16951.1
-14934.8
-18849.8
-15585.2
-5447.28
-7176.16
-6247.58
-7485.42
95.1212
-601.793
-4524.14
-1868.16
136.689
-550.877
-4293.03
-1719.47
-169.264
-720.38
-4678.43
-2002.75
-461.174
-793.671
-4736.91
-2019.48
-635.89
-606.03
-458.41
-392.047
-1293.73
-1162.18
-501.744
-405.835
-5546.96
-4591.71
-1625.32
-1374.27
-2700.25
-3768.77
-2876.79
437.803
-262.551
-98.3605
-777.796
-3184.88
1689.81
96.0273
-14546.1
-10531.5
-7536.57
-4909.07
-1887.7
-517.054
-366.398
-347.547
-314.131
-1027.89
-713.904
-444.711
-469.276
-3946.31
-3079.41
-1240.62
-1213.21
-3685.09
-4663.42
-1931.13
-3084.41
-3157.09
-2887.22
-292.848
-514.061
-538.281
-731.265
-8348.7
-5507.9
-5606.4
-3233.35
-3777.47
-2183.04
-2333.47
-1319.51
-848.384
-692.542
-5671.18
-4580.37
-7927.05
-4498.65
-8606.61
-7473.57
-11010.1
-7941.52
-5266.93
-2819.3
-3687.42
-3002.65
-9015.5
-3868.51
-9907.32
-4209.72
-12176.1
-8013.01
-13173.2
-8674.57
-6074.12
-2316.5
-6698.61
-2535.35
-3114.27
-1855.96
-1218.51
-1357.12
-2478.39
-2031.63
-1188.57
-1417.19
-3391.28
-1712.93
-1243.25
-1465.11
-4064.41
-1780.54
-1718.46
-1445.1
-233.1
-198.109
-217.104
-184.365
-590.27
-612.291
-330.045
-295.024
-2465.81
-1993.72
-725.658
-346.966
-4757.49
-3601.89
-3336.99
-2318.05
-2323.74
-1671.08
-667.192
-591.308
-646.848
-324.429
-5119.15
-3243.03
-2516.78
-1563.52
-1664.27
-1006.57
-926.709
-509.018
-623.259
-52.7931
-40.4652
-12.8703
-3.94077
-0.618664
3.19824
-1.61785
1.98062
1.68347
-118.973
-37.1181
-2.8064
2.56064
-26.3827
-14.4397
8.74886
6.48453
-237.693
-66.594
-3.02125
7.58765
-155.977
-48.8779
-7.47702
0.388008
-131.521
-35.5312
-11.1567
-3.33628
-150.644
-38.0091
-3.877
1.18287
-432.846
-113.907
-30.4423
-6.70105
-500.893
-122.573
-36.9382
-3.512
-374.042
-96.3271
-20.2761
0.85385
-438.289
-105.494
-36.5723
-5.33349
-435.648
-112.885
-22.4567
-1.44013
-540.161
-133.003
-37.9651
-2.26617
-437.287
-111.755
-18.244
1.36236
-558.84
-137.873
-38.853
-2.46233
-43.4214
-12.8003
-2.96265
0.0669364
-33.8828
-8.85058
-3.83803
-0.247915
-105.643
-31.171
-4.51095
1.55595
-78.0446
-20.5606
-8.54918
-0.220583
-267.628
-71.6934
-14.1251
1.01592
-223.403
-56.3658
-17.4517
-0.397254
-252.457
-62.477
-11.145
2.33179
-188.994
-44.8551
-17.462
-0.240536
-425.871
-100.064
-33.8913
-0.952524
-22.7892
-5.52096
-1.56382
0.176315
-6.58995
-1.54374
-0.310113
-0.0327821
-71.6967
-17.1489
-6.78232
-0.425027
-22.9427
-5.14355
-2.01106
-0.428081
-139.596
-31.8819
-11.8347
-0.922387
-53.0068
-10.9627
-3.39308
-0.716213
-218.609
-47.566
-15.8372
-0.609196
-101.513
-19.0327
-5.17987
-1.088
-297.021
-63.0646
-25.7631
-3.68773
-137.327
-24.5614
-8.23899
-1.93827
-404.418
-87.0632
-31.2399
-4.69677
-161.003
-31.821
-9.74858
-2.50381
-373.525
-78.9334
-30.885
-5.40543
-162.296
-30.4811
-9.40082
-2.34819
-429.138
-92.892
-31.4898
-4.31118
-164.366
-32.5704
-9.02514
-2.3043
-444.381
-96.469
-31.5378
-4.52999
-171.83
-33.8016
-8.74964
-2.20559
0.034783
0.00545831
-7.13123e-05
-0.000335269
-0.000191047
0.103657
0.00660491
-0.0013109
-0.000896575
-0.000427072
0.105901
0.0036547
-0.00228136
-0.00120795
-0.000551593
0.0803946
-0.0132789
-0.00794027
-0.00301964
-0.00122205
0.113439
-0.00739111
-0.00506839
-0.00189716
-0.000771129
-0.115378
-0.0426905
-0.0144927
-0.00475164
-0.00180513
-0.232996
-0.0459524
-0.0119822
-0.00342935
-0.0011968
-0.100759
-0.0293526
-0.00736515
-0.00191727
-0.000624367
-0.283414
-0.0421659
-0.00992374
-0.0028141
-0.00101103
-0.167058
-0.0233606
-0.00465855
-0.0011746
-0.000395266
-0.0761562
-0.0263724
-0.00886616
-0.0029679
-0.00115701
-0.105116
-0.0140726
-0.00321617
-0.000932241
-0.000345988
-0.24533
-0.0426392
-0.00874179
-0.00211173
-0.000677472
-0.138859
-0.0260544
-0.0054015
-0.00129589
-0.000410668
-0.103198
-0.0245414
-0.00437781
-0.000764996
-0.000180405
-0.0696115
-0.0131148
-0.00215911
-0.000347059
-7.27483e-05
0.0357003
0.00718263
0.000789221
-5.21991e-05
-8.84904e-05
0.0418685
0.00983187
0.00153645
0.00013049
-3.54091e-05
0.146803
0.0167917
0.000888744
-0.000442554
-0.000320514
0.151966
0.0245843
0.00290001
1.86711e-05
-0.000190899
0.113634
0.006087
-0.00145323
-0.000955147
-0.000465993
0.190141
0.0223622
0.00115824
-0.000596615
-0.000426357
0.0577605
-0.00389126
-0.00411592
-0.00178231
-0.000772983
0.129267
0.0114749
-0.000424124
-0.000761056
-0.000414789
-0.034737
-0.00883018
-0.00324109
-0.00117212
-0.00047669
156.952
-204.57
569.717
-478.351
1090.84
-595.785
1847.38
-364.359
2314.32
682.538
-534.585
-1857.75
1367.68
711.728
-1352.74
-2974.27
-1905.78
-3391.7
-1538.23
-441.966
-148.425
-67.8047
-44.1853
-389.248
-244.235
-56.1583
-28.306
-19.0875
-4756.95
-1357.71
-457.596
-208.969
-136.424
-945.149
-380.803
-149.891
-69.9613
-46.0888
-8023.86
-2297.48
-778.733
-357.197
-233.277
-1680.69
-678.67
-258.524
-122.87
-78.7497
-10840.6
-3120.9
-1067.56
-492.933
-322.806
-2203.16
-907.476
-348.225
-165.605
-106.167
-13723.5
-3996.57
-1383.89
-644.94
-424.751
-2758.24
-1165.16
-450.812
-216.183
-140.091
-16613.5
-5028.58
-1782.07
-842.137
-558.095
-4285.11
-1623.92
-605.116
-286.461
-185.994
-15360.9
-4600.36
-1613.34
-756.716
-499.963
-3408.38
-1384.76
-527.189
-251.086
-162.855
-17193.4
-5239.44
-1868.56
-886.706
-588.377
-4783
-1760.39
-648.148
-305.338
-198.575
-17909.7
-5433.98
-1945.08
-924.58
-613.828
-4969.08
-1830.75
-676.647
-309.86
-205.048
-945.583
-9981.93
-8438.86
-2506.48
-1868.47
-852.561
-4265.91
-2661.89
-8633.26
-7982.96
-4275.82
-3079.33
-4.48333
-9.93918
-24.5507
-57.5224
-126.917
-263.92
-4.08213
-12.7699
-36.5917
-89.6814
-194.025
-375.156
-2.72811
-1.09375
-6.62216
-3.67735
-17.4535
-11.744
-42.8643
-33.4247
-92.7258
-73.8539
-196.02
-141.913
-496.711
-844.942
-1368.2
-3020.36
-4503.61
-5672.69
-645.722
-984.076
-1327.48
-1638.55
-1898.23
-2045.78
-3.85943
-3.07207
-2.17816
-1.28194
-0.42112
-8.52194
-6.74961
-4.76042
-2.78952
-0.914127
-20.9564
-16.5075
-11.5767
-6.75251
-2.20717
-48.8328
-38.2138
-26.6208
-15.4455
-5.03411
-106.968
-83.0035
-57.3442
-33.0598
-10.7393
-220.245
-169.005
-115.539
-66.1007
-21.394
-3.50488
-2.78083
-1.96494
-1.15318
-0.378214
-10.9142
-8.61078
-6.04869
-3.53286
-1.1556
-31.1296
-24.4226
-17.0579
-9.91768
-3.23603
-75.8663
-59.1245
-41.0212
-23.7268
-7.72056
-163.002
-126.016
-86.754
-49.8856
-16.1844
-312.48
-239.268
-163.253
-93.2725
-30.1696
-2.35416
-1.87957
-1.33694
-0.788947
-0.259562
-0.945086
-0.755851
-0.538628
-0.318336
-0.10482
-5.69374
-4.52522
-3.20321
-1.88262
-0.617962
-3.16794
-2.52403
-1.79135
-1.05511
-0.346745
-14.944
-11.8158
-8.31857
-4.8673
-1.59367
-10.0771
-7.989
-5.64005
-3.30745
-1.08424
-36.5068
-28.6783
-20.0553
-11.6712
-3.81007
-28.5276
-22.4665
-15.7502
-9.18332
-3.00085
-78.4249
-61.0967
-42.369
-24.4943
-7.96791
-62.6349
-48.9446
-34.0372
-19.7167
-6.41981
-164.088
-126.314
-86.583
-49.617
-16.0688
-119.24
-92.1423
-63.3594
-36.3775
-11.7887
-408.854
-309.176
-208.64
-118.327
-38.1693
-681.98
-505.825
-335.976
-188.765
-60.7915
-1073.62
-776.583
-506.336
-282.003
-91.1441
-2267.99
-1587.85
-1014.94
-562.886
-185.725
-3164.15
-2129.52
-1337.54
-745.317
-258.821
-3824.94
-2519.04
-1567.22
-877.023
-314.58
-532.103
-402.784
-272.041
-154.369
-49.7968
-799.787
-597.026
-398.593
-224.595
-72.3196
-1058.85
-776.701
-511.666
-286.318
-92.2307
-1271.27
-911.05
-590.668
-328.519
-106.483
-1407.8
-976.229
-621.2
-344.595
-114.077
-1463.75
-990.154
-621.601
-344.687
-116.378
-4.48717
-9.962
-24.643
-57.8341
-127.809
-265.666
-4.0867
-12.7943
-36.6696
-89.8657
-194.281
-375.136
-2.73279
-1.09833
-6.65428
-3.7169
-17.6036
-11.9734
-43.4508
-34.4485
-94.886
-79.012
-200.998
-155.878
-498.964
-847.061
-1367.97
-2998.4
-4461.92
-5649.68
-644.678
-981.256
-1322.57
-1630.05
-1886.74
-2040.09
-3.86427
-3.07754
-2.18337
-1.2857
-0.422494
-8.54823
-6.77755
-4.78593
-2.80751
-0.920625
-21.0558
-16.6074
-11.6642
-6.81274
-2.22865
-49.1566
-38.5289
-26.8897
-15.6272
-5.09834
-107.883
-83.8805
-58.0822
-33.5533
-10.9128
-222.121
-170.87
-117.143
-67.186
-21.7776
-3.51088
-2.78779
-1.97166
-1.15807
-0.380006
-10.9447
-8.6452
-6.08127
-3.5563
-1.16413
-31.2266
-24.5312
-17.16
-9.99074
-3.26256
-76.1059
-59.3987
-41.2816
-23.914
-7.78861
-163.415
-126.541
-87.2783
-50.2717
-16.3261
-312.868
-239.981
-164.068
-93.9073
-30.4079
-2.35915
-1.88457
-1.34133
-0.791977
-0.260645
-0.949536
-0.759936
-0.541969
-0.320537
-0.105589
-5.72599
-4.55577
-3.22884
-1.89979
-0.624012
-3.20493
-2.55659
-1.81698
-1.07153
-0.352401
-15.0886
-11.9471
-8.42466
-4.93651
-1.61774
-10.2866
-8.16848
-5.77754
-3.39371
-1.11362
-37.061
-29.1704
-20.4445
-11.9212
-3.89623
-29.4554
-23.253
-16.3461
-9.5538
-3.12643
-80.4215
-62.8245
-43.7018
-25.3336
-8.25434
-67.1929
-52.6928
-36.79
-21.3864
-6.97829
-168.755
-130.407
-89.772
-51.6363
-16.7593
-131.539
-102.214
-70.7193
-40.8203
-13.2696
-411.651
-312.227
-211.415
-120.26
-38.8608
-685.612
-510.382
-340.399
-191.94
-61.9434
-1077.07
-782.501
-512.716
-286.788
-92.9183
-2258.08
-1587.04
-1019
-567.449
-187.697
-3139.3
-2117.48
-1333.89
-745.528
-259.433
-3810.29
-2510.91
-1563.66
-875.97
-314.465
-531.954
-403.396
-273.021
-155.216
-50.1264
-798.585
-597.221
-399.57
-225.577
-72.7196
-1056.43
-776.385
-512.574
-287.393
-92.6876
-1266.44
-909.285
-590.815
-329.265
-106.86
-1400.52
-972.423
-619.778
-344.364
-114.128
-1460
-988.008
-620.602
-344.347
-116.318
-15616.8
-9957.82
-895.952
-390.293
-283.797
-301.799
-460.885
-8962.87
-7761.36
-5800.59
-5969.53
-2132.54
-4075.14
-1352.13
-1483.98
-900.491
-14347.9
-5459.09
-1072
-1898.41
-3555.12
-1979.97
-1780.13
-1116.08
-520.064
-612.31
-1059.81
-1063.84
-14836
-8258.49
-7671.54
-4666.13
-3625.44
-4838.66
-1097.77
-924.892
-1944.85
-9287.22
-6508.88
-4160.04
-2632.62
-1463.38
-5738.32
-3452.79
-2157.9
-1237.52
-474.897
-724.604
-539.065
-359.363
-202.595
-65.4184
-323.269
-246.228
-167.349
-95.432
-30.8712
-235.608
-179.781
-122.288
-69.7179
-22.5309
-252.784
-194.787
-133.704
-76.7279
-24.8707
-380.068
-288.005
-194.766
-110.645
-35.7219
-5336.71
-3519.23
-2221.46
-1400.67
-886.672
-4697.8
-3217.8
-2039.24
-1229.54
-540.318
-3637.26
-2243.11
-1409.15
-794.219
-289.985
-3650.56
-2430.9
-1538.13
-885.019
-332.128
-1604.75
-1124.49
-717.415
-393.831
-126.521
-2823.44
-1855.74
-1165.2
-638.122
-208.465
-1057.81
-762.885
-495.744
-274.608
-87.9962
-1155.54
-829.972
-537.596
-297.193
-95.1733
-715.157
-522.148
-342.202
-190.358
-60.9506
-8385.13
-5407.86
-3464.7
-2146.25
-1272.68
-3654.18
-2396.35
-1515.74
-851.975
-312.727
-831.771
-596.735
-386.99
-214.742
-69.4142
-1474.69
-1060.4
-689.958
-384.751
-125.509
-2650.45
-1854.49
-1188.38
-662.102
-222.925
-1532.68
-1098.76
-713.598
-397.964
-130.053
-1397.03
-1012.92
-663.031
-370.915
-120.594
-891.9
-655.986
-433.35
-243.056
-78.5031
-420.37
-312.065
-207.288
-116.317
-37.3713
-501.481
-377.359
-253.649
-143.514
-46.2757
-841.661
-615.178
-404.021
-225.439
-72.5364
-850.739
-626.11
-413.715
-231.955
-74.8671
-8744.12
-5907.23
-3800.51
-2339.26
-1303.89
-5055.54
-3161.99
-1988.1
-1136.17
-444.313
-5024.05
-3450.55
-2152.3
-1221.79
-464.619
-3278.25
-2180.26
-1382.24
-775.027
-271.064
-2715.89
-1906.84
-1223.69
-682.355
-228.75
-3387.93
-2254.93
-1429.17
-800.193
-276.875
-859.397
-621.019
-405.217
-226.173
-73.4432
-753.704
-564.24
-377.688
-213.212
-68.7289
-1529.98
-1110.01
-726.178
-405.642
-131.482
-77.2676
-239.977
-436.6
-683.934
-975.676
-1296
-4031.89
-10564.9
-9336.16
-3664.88
-13107.8
-11729.2
-11949
-12891.1
-3842.08
-2517.04
-9159.96
-4922.21
-15478.8
-13094.5
203.33
-3189.03
-8523.51
-7322.75
-2834.66
-10676.2
-9069.34
-9485.74
-10112.6
-3184.72
-1374.85
-8037.05
-2319.86
-11737.5
-8167.12
2781.67
-2180.55
-5983.81
-4974.94
-1880.9
-7702.07
-4726.37
-6785.97
-6779.92
-2291.74
-1309.48
-5450.9
-2558.94
-8228.84
-2690.1
2952.9
-1393.94
-4018.6
-3225.93
-1190.91
-4969.85
-2008.07
-4612.1
-4605.53
-1562.35
-1351.18
-3726.81
-2563.25
-6041.8
-256.416
2152.36
-941.363
-2856.99
-2218.35
-805.288
-3131.54
-1072.65
-3302.74
-3589.66
-1070.24
-1493.24
-2305.61
-2449.44
-4525.72
187.725
248.565
-694.932
-2082.98
-1660.58
-592.662
-2376.47
-1322.26
-2476.31
-2939.48
-700.772
-1178.74
-1495.55
-2209.14
-4334.18
-1175.66
-1078.61
-1497.76
-3614.76
-6179.89
-2444.3
-5523.28
-9149.3
-8584.53
-11604.1
-847.392
-395.699
-3327.74
-1369.08
-1061.34
-7595.14
-2887.96
-1325.85
-3199.77
-5149.15
-2021.87
-4808.2
-7746.05
-7260.89
-9161.83
-810.451
-243.643
-3258.04
-1026.17
-199.717
-6766.96
-1465.05
-1040.59
-2509.07
-3741.49
-1450.17
-3876.29
-5811
-5440.85
-6815.68
-620.645
-241.635
-2384.44
-909.14
-279.857
-4341.96
-1021.54
-728.475
-1855.36
-2512.13
-958.995
-2914.91
-4070.84
-3930.33
-4885.92
-443.667
-213.752
-1764.69
-782.475
-142.002
-3089.41
-771.218
-518.568
-1346.36
-1760.73
-663.492
-2028.55
-2880.19
-2860.3
-3743.03
-314.564
-248.55
-1220.88
-772.668
-188.242
-2307.39
-796.71
-385.696
-943.094
-1319.71
-491.363
-1501.06
-2511.38
-2141.81
-3076.96
-262.723
-275.306
-864.582
-685.415
-357.903
-2236.92
-1028.42
9005.37
11435.4
22740.7
34054.3
34907.8
59867.3
25972.4
65323.3
20597.1
45084.4
30841.1
47332.7
27105.4
36666.5
10385.2
12031.1
23763.6
27066.6
29764.8
29739.4
22437.4
26600.6
32656.5
29034
7935.29
6475.93
9714.46
7003.18
20288.2
17137.4
34135.3
26010.3
26106.4
27289
30733.6
30338
11990
8963.9
59053.9
78901.2
39248.8
47907.7
75562.7
98379
39842
45745.1
45753.3
64515
41375
54120
25014.7
39449.9
4895.65
1738.95
4985.31
1871.97
15522.9
6476.54
20981.6
7999.91
15897.5
6177.68
16019.6
5380.35
26621.1
8838.5
34314.1
12031.2
34325.9
18086.2
32332.3
19335.1
29750.4
19088.7
27147.7
19223.5
27934
17577.5
27779.2
15567.1
33990.7
21115.4
34400.2
21249.1
29302.6
20215.1
29885.3
20166.3
30301.7
19723.5
31485.9
20194.3
29692.6
14121.6
16026.9
21016.4
29359.7
15494.9
14251.3
21307.8
31638.2
13949.2
17795.1
21150.1
33378.3
14259.8
19099.9
21951.6
6200.31
6636.09
2243.7
4600.04
18664.9
19518.6
7854.17
14787.7
23632.3
25102.5
13218
22734.8
12147.7
-803.653
17888.6
25916.5
16495.6
-1580.5
5388.92
16152.1
29138.9
25853.2
12505.5
17261.9
17946.7
18084
29928.2
5119.44
3633.28
3075.37
2838.32
15418.2
11230.3
10619.3
9225.24
18301.1
12932.6
13981.9
11359
4384.71
5603.34
10495.9
10609.8
17475.2
14492.6
21438
16417.8
18794.8
14654.1
9326.32
7649.44
13703.4
8023.03
14879.7
8183.92
15338.6
8279.05
20879.7
11800
12289.6
3246.38
11615.8
9213.1
12957.7
13293
14529.9
17192.7
11369.8
8893.59
12852.4
1859.82
10699.1
14930.3
10293.4
16178.4
14463.2
21481.3
14617.8
23065.4
10321.1
14952.8
9818.84
16076.4
15283.5
8788.69
22505.3
7853.21
14428.8
1225.61
19665.2
746.714
15029.4
12921.1
23410.7
9655.85
13332.3
15110.1
21547.4
12222.6
2286.01
1634.47
1055.69
1827.08
1353.04
929.01
7386.91
4253.94
2496.62
5569.02
3113.24
1843.36
7678.64
4529.68
3184.22
6562.03
3549.06
2470.04
3769.6
2031.56
1482.39
7751.67
3558.34
2039.78
9266.57
4294.11
2243.26
10117.4
5201.54
3215.88
9061.33
4078.96
2176.46
10227.7
5860.85
3312.71
8253.93
4686.61
2366.07
9277.74
4872.3
2260.67
9533.02
4761.21
2122.76
12245
5272.65
1872.12
12252
15724.6
10327.3
12710.8
15380.4
21006.9
14529.2
19574.1
-7.07511
493.524
-411.221
157.307
2929.56
2919.16
1472.13
934.613
1548.75
3057.64
10070.6
13645.5
5780.35
3795.14
12333.6
12519.4
20962.1
23293.5
-11.5746
-3845.8
8515.74
7994.36
6876.72
5198.01
837.651
438.071
694.278
381.403
2164.85
344.159
450.603
-154.408
8434.46
1827.98
6319.02
1632.73
8483.15
2309.71
10001.8
2657.1
10970.8
11782.8
10102.3
11536.7
18385.9
17002.1
17643.9
16153.4
6226.52
7886.67
7110.51
7800.16
10596
11203.5
11407
11156
18528.5
15963.1
19318.5
15871.6
6204.63
7660.36
6512.3
7636.05
149.668
613.889
4828.95
1885.24
-58.5121
401.515
4427.73
1639.91
410.938
759.561
4906.84
2038.3
576.875
816.731
4814.35
2034.43
-291.372
-329.172
143.026
1.65181
-1491.73
-1353.07
-7.9395
-198.764
14.4987
-732.697
903.623
391.715
-7520.61
-9060.56
-3371.97
-2259.82
-289.302
-9796.25
-8142.6
-2427.27
-3197.47
-540.202
10861.9
7711.95
5590.76
4054.55
1547.55
-237.173
-152.622
-35.6145
-34.0142
-858.901
-580.789
-121.849
-101.865
-889.534
-812.997
105.977
23.301
-3697.91
-890.271
-4887.3
-2120.43
-1478.55
-698.936
-1523.13
-928.65
-41.9754
94.7014
4130.37
2235.64
1763.47
12.8273
1162.26
-0.197907
910.332
136.045
393.159
247.566
4697.73
3352.34
8124.52
4313.68
7987.6
6270.68
11597.4
7901.92
5229.65
2630.93
2847.35
2118.25
9350.12
3883.91
10041.9
4245.5
12736.4
8163.75
13373.4
8758.62
6224.03
2283.31
6771.11
2546.63
3002.98
1721.6
1108.55
1252.21
1905.28
1491.9
916.346
1142.94
3419.48
1673.44
1214.09
1427.54
4091.56
1780.34
1717.38
1439.42
-85.4063
-52.8513
-45.6313
-11.1182
-18.0532
-15.5972
-340.359
-227.652
-172.502
-33.3733
-55.5823
-45.3362
-545.796
-369.444
-265.176
54.893
-59.728
-61.2679
-115.291