/*--------------------------------*- C++ -*----------------------------------*\
  =========                 |
  \\      /  F ield         | OpenFOAM: The Open Source CFD Toolbox
   \\    /   O peration     | Website:  https://openfoam.org
    \\  /    A nd           | Version:  11
     \\/     M anipulation  |
\*---------------------------------------------------------------------------*/
FoamFile
{
    format      ascii;
    class       volScalarField;
    location    "0.4";
    object      T;
}
// * * * * * * * * * * * * * * * * * * * * * * * * * * * * * * * * * * * * * //

dimensions      [0 0 0 1 0 0 0];

internalField   nonuniform List<scalar> 
5712
(
520.627
545.639
505.268
535.342
484.462
521.866
451.948
494.451
452.686
486.167
482.282
515.933
501.076
530.824
513.814
540.614
469.968
439.227
500.267
455.955
435.968
405.657
464.735
419.197
531.019
540.759
551.663
557.217
515.028
526.927
541.947
549.873
516.203
491.512
481.27
464.692
507.085
530.901
529.24
528.775
471.313
477.324
498.302
496.627
432.938
437.26
537.894
541.323
498.499
507.857
551.145
555.688
547.125
562.202
561.899
568.632
535.271
557.216
556.094
566.198
512.125
546.515
533.536
557.566
548.458
563.692
554.12
565.804
416.021
398.137
427.732
402.049
382.037
367.685
392.305
370.898
462.609
435.563
450.01
430.459
435.661
403.671
437.306
402.915
399.106
372.208
400.223
371.392
471.022
437.834
473.108
437.435
496.863
542.371
474.224
525.481
483.963
534.308
467.341
518.831
505.466
546.826
477.458
528.875
508.071
548.41
477.601
530.262
531.444
501.872
553.771
532.173
513.834
484.963
546.214
522.224
488.941
463.65
533.417
508.636
391.482
354.894
428.674
464.501
518.002
347.716
382.666
417.313
449.127
497.128
354.698
387.261
421.029
456.785
505.68
450.051
406.551
458.303
416.3
442.473
402.294
456.735
414.955
431.99
395.55
454.823
414.294
334.876
319.671
367.934
347.087
398.379
371.656
425.889
393.532
456.929
419.475
340.404
323.825
371.893
353.41
403.672
380.823
435.334
406.946
466.256
433.668
379.367
369.034
379.016
370.94
347.275
327.265
348.133
328.862
411.107
404.972
411.652
402.093
376.688
370.954
376.144
370.935
347.334
329.508
346.853
329.362
408.247
404.912
407.794
405.101
445.254
437.904
476.519
467.725
444.709
433.296
475.269
461.97
443.562
438.389
476.45
469.306
441.628
437.288
474.447
467.661
362.449
330.85
315.324
366.622
332.4
316.21
361.395
329.582
313.645
366.378
331.439
314.622
356.555
325.534
309.927
366.531
329.784
312.144
303.624
291.755
285.7
323.384
303.793
293.592
341.008
314.346
300.528
355.403
323.046
306.649
369.865
329.615
309.998
306.573
292.541
285.362
330.471
307.574
295.025
349.78
318.638
301.648
366.15
327.017
306.459
378.066
332.3
309.244
359.315
348.576
365.862
354.59
394.521
373.964
408.829
383.407
335.403
315.074
336.464
316.362
336.774
317.43
338.345
318.647
337.36
333.92
335.9
331.106
320.266
322.747
358.657
360.728
390.129
392.861
339.792
342.855
338.995
340.519
324.641
326.258
297.705
285.015
301.105
286.686
299.35
285.22
302.569
287.005
302.027
285.539
306.689
287.899
308.832
289.179
308.96
289.462
329.864
319.722
336.782
322.287
353.168
340.85
361.506
343.777
318.539
305.79
312.944
303.707
340.357
323.324
341.137
323.011
366.318
344.949
367.212
344.355
321.253
306.684
321.868
306.553
302.252
286.02
293.986
283.177
298.002
284.31
292.406
282.381
304.454
287.139
294.697
283.569
305.094
287.657
294.682
283.625
286.67
280.881
281.64
278.678
287.823
282.057
281.762
278.987
290.206
284.83
282.202
279.873
311.378
328.726
299.645
291.487
282.08
323.222
307.047
294.778
287.936
280.628
328.464
310.957
298.339
289.542
281.273
277.518
275.533
276.634
275.224
278.464
276.131
277.038
275.544
280.593
277.537
277.904
276.207
312.441
301.063
298.487
289.935
289.289
283.539
283.757
279.73
278.977
277.056
316.253
302.755
301.439
291.333
291.741
284.801
285.199
280.486
279.678
277.507
305.142
292.16
307.483
293.826
321.779
304.19
324.242
305.908
295.74
286.514
293.951
285.253
309.068
294.602
309.022
294.608
325.447
306.512
325.222
306.443
297.102
287.196
297.105
287.218
286.968
281.23
280.354
277.738
286.196
280.498
280.085
277.49
287.512
281.647
280.471
277.834
288.015
281.793
280.723
278.027
274.154
273.552
273.329
273.756
273.314
273.175
274.532
273.756
273.463
273.936
273.411
273.235
275.357
274.219
273.768
274.268
273.56
273.321
290.451
283.401
279.999
282.951
278.808
276.909
278.997
276.379
275.252
276.547
274.816
274.121
274.616
273.681
273.369
290.993
282.864
279.163
283.391
278.405
276.31
279.43
276.208
274.915
276.803
274.776
274.014
274.668
273.662
273.338
277.44
274.449
273.452
273.132
277.969
274.586
273.481
273.137
277.425
274.444
273.453
273.134
278.077
274.616
273.495
273.143
277.34
274.419
273.464
273.142
278.105
274.623
273.518
273.154
278.426
274.713
273.515
273.146
278.541
274.758
273.518
273.146
277.608
274.502
273.488
273.148
276.851
274.316
273.445
273.144
277.084
274.358
273.463
273.149
276.617
274.248
273.431
273.144
277.962
274.605
273.501
273.146
276.998
274.363
273.454
273.145
278.14
274.663
273.513
273.15
277.072
274.389
273.463
273.149
276.577
274.234
273.411
273.129
275.671
273.999
273.36
273.124
276.554
274.225
273.413
273.131
275.724
274.011
273.364
273.126
276.555
274.221
273.419
273.136
275.892
274.052
273.375
273.13
276.433
274.189
273.417
273.139
276.016
274.083
273.387
273.134
276.309
274.164
273.414
273.142
275.046
273.837
273.299
273.114
274.734
273.761
273.271
273.103
275.154
273.865
273.307
273.117
274.843
273.791
273.279
273.106
275.363
273.919
273.32
273.121
275.042
273.845
273.292
273.11
275.628
273.988
273.341
273.128
275.288
273.912
273.309
273.115
275.887
274.063
273.365
273.135
275.514
273.98
273.328
273.121
276.187
274.166
273.389
273.14
275.809
274.088
273.361
273.131
276.069
274.123
273.378
273.137
275.688
274.043
273.346
273.126
276.253
274.192
273.392
273.141
275.885
274.119
273.369
273.134
276.296
274.209
273.397
273.143
275.93
274.137
273.375
273.136
273.042
273.014
273.004
273.001
273
273.043
273.014
273.004
273.001
273
273.043
273.014
273.004
273.001
273
273.044
273.014
273.004
273.001
273
273.044
273.014
273.004
273.001
273
273.044
273.014
273.004
273.001
273
273.045
273.015
273.004
273.001
273
273.046
273.015
273.005
273.001
273
273.045
273.014
273.004
273.001
273
273.045
273.014
273.004
273.001
273
273.044
273.014
273.004
273.001
273
273.044
273.014
273.004
273.001
273
273.045
273.015
273.004
273.001
273
273.045
273.015
273.004
273.001
273
273.046
273.015
273.005
273.001
273
273.046
273.015
273.005
273.001
273
273.041
273.014
273.004
273.001
273
273.041
273.013
273.004
273.001
273
273.042
273.014
273.004
273.001
273
273.041
273.014
273.004
273.001
273
273.043
273.014
273.004
273.001
273
273.042
273.014
273.004
273.001
273
273.044
273.014
273.004
273.001
273
273.043
273.014
273.004
273.001
273
273.044
273.014
273.004
273.001
273
470.915
464.352
471.454
465.143
473.028
467.165
476.396
470.775
482.486
476.937
491.666
492.027
489.18
487.666
492.464
493.513
492.526
493.418
550.907
567.379
571.141
572.143
572.436
532.017
561.323
569.186
571.308
571.928
551.288
567.483
571.173
572.157
572.444
532.564
561.476
569.217
571.323
571.934
551.695
567.574
571.194
572.164
572.448
533.266
561.63
569.251
571.332
571.938
552.584
567.776
571.247
572.183
572.459
534.46
561.889
569.308
571.349
571.948
554.135
568.118
571.338
572.218
572.481
536.421
562.319
569.409
571.381
571.964
555.081
568.132
571.291
572.181
572.449
540.423
563.073
569.545
571.404
571.966
554.962
568.195
571.335
572.209
572.471
539.048
562.841
569.525
571.415
571.979
555.014
568.067
571.255
572.159
572.432
540.958
563.156
569.539
571.388
571.951
555.076
568.075
571.254
572.157
572.43
540.945
563.148
569.519
571.374
571.941
374.171
418.92
416.917
370.451
352.959
354.694
356.725
360.015
369.321
374.36
405.171
418.246
415.867
429.908
386.43
392.719
371.967
376.348
364.003
366.62
308.021
294.816
274.542
273.71
273.701
273.547
274.026
302.918
294.546
286.542
285.114
280.751
277.56
280.412
277.445
275.889
276.216
275.313
303.012
285.151
277.439
276.881
279.731
278.535
276.441
275.536
274.481
274.19
275.537
275.274
305.845
290.709
295.417
284.15
280.655
286.413
276.332
274.558
276.952
295.896
287.82
282.465
278.378
275
288.738
283.863
279.942
276.889
274.329
274.28
273.977
273.665
273.379
273.123
273.597
273.463
273.319
273.184
273.06
273.591
273.459
273.317
273.183
273.059
273.462
273.36
273.249
273.144
273.047
273.859
273.662
273.454
273.26
273.084
292.789
285.584
280.869
277.396
274.687
286.954
281.575
278.221
275.838
273.965
282.94
279.829
277.286
275.341
273.77
280.901
277.843
275.895
274.529
273.49
278.08
276.108
274.834
273.949
273.296
276.58
275.584
274.675
273.924
273.295
278.572
276.876
275.443
274.326
273.423
276.391
275.383
274.509
273.816
273.257
275.323
274.713
274.129
273.629
273.201
275.545
274.848
274.202
273.663
273.211
274.875
274.394
273.924
273.517
273.165
293.318
286.149
281.336
277.685
274.783
282.191
279.477
277.151
275.297
273.758
276.536
275.588
274.698
273.945
273.304
276.122
275.308
274.528
273.856
273.276
278.278
276.819
275.49
274.386
273.449
277.422
276.251
275.145
274.201
273.387
275.8
275.095
274.402
273.792
273.255
275.08
274.567
274.054
273.596
273.192
274.227
273.933
273.632
273.359
273.116
273.992
273.76
273.519
273.296
273.096
275.064
274.542
274.028
273.578
273.185
274.864
274.403
273.942
273.532
273.171
294.897
287.261
282.119
278.176
274.963
286.061
282.125
278.866
276.283
274.108
289.376
284.086
280.094
276.962
274.367
281.629
279.201
277.037
275.255
273.738
279.05
277.411
275.896
274.619
273.524
283.201
280.232
277.657
275.587
273.855
275.711
275.027
274.355
273.764
273.246
274.292
273.984
273.668
273.38
273.123
276.189
275.365
274.571
273.882
273.284
461.01
523.713
450.909
516.134
421.81
491.393
430.984
498.587
433.487
412.655
484.842
441.773
403.475
382.931
450.245
406.539
483.52
504.64
535.259
545
473.584
493.705
529.115
539.667
501.723
457.923
467.401
437.779
477.988
518.93
524.16
527.455
464.817
475.542
492.943
495.08
426.827
435.459
532.818
540.105
492.436
506.281
547.334
554.846
528.071
556.025
555.043
566.352
516.769
551.179
549.96
564.049
494.018
540.589
524.403
554.493
545.063
562.495
553.401
565.535
402.413
390.884
418.591
397.318
370.973
361.777
384.467
366.825
453.605
431.143
436.103
423.517
430.907
401.076
435.915
402.106
394.877
369.898
398.968
370.662
466.415
435.436
471.768
436.691
490.178
540.025
470.986
524.155
473.587
530.6
462.194
516.684
502.049
545.598
475.711
528.161
507.076
548.039
477.059
530.039
501.846
469.692
544.423
521.469
487.168
456.921
537.527
512.479
466.602
440.994
525.874
500.457
385.874
356.753
417.193
452.532
513.299
351.635
378.316
405.26
435.347
491.428
354.336
381.959
413.209
449.906
502.639
423.884
392.186
448.094
415.687
418.963
388.78
447.902
414.598
411.945
383.292
447.854
414.123
340.504
326.278
365.08
346.355
388.639
365.474
414.849
386.983
452.686
419.752
342.281
326.662
368.764
352.6
397.799
378.362
429.873
405.064
463.605
433.893
375.48
366.59
376.162
368.843
345.368
327.211
346.05
327.902
408.126
402.57
407.145
398.858
375.044
369.645
375.612
370.506
346.012
328.701
346.411
329.076
406.579
403.502
407.262
404.65
442.873
435.867
475.057
466.351
440.996
430.562
473.09
460.269
442.217
437.189
475.613
468.486
441.176
436.89
474.174
467.397
372.71
364.226
389.606
378.039
369.627
359.849
388.007
374.412
363.67
352.815
386.096
369.23
314.515
306.621
331.262
320.905
347.516
334.88
365.167
350.275
387.565
364.921
312.592
303.537
336.381
322.966
356.518
338.43
375.297
351.805
391.007
361.895
343.74
336.276
357.697
347.06
371.21
356.654
397.82
373.337
326.235
309.317
331.63
312.459
326.077
311.218
332.412
314.659
331.498
323.879
330.317
322.606
313.867
318.61
354.271
359.29
384.766
391.175
335.863
341.4
335.458
339.273
321.664
325.108
297.849
286.182
299.747
286.992
299.096
286.233
300.983
287.118
301.381
286.357
304.775
287.852
307.216
288.934
308.331
289.338
325.697
318.195
332.671
320.594
345.559
337.212
355.516
340.883
316.091
305.051
311.379
303.547
337.752
322.179
340.301
322.627
362.858
343.193
366.151
343.787
319.481
306.075
321.265
306.337
301.455
286.143
293.816
283.304
298.535
285.021
292.856
282.847
303.599
287.053
294.447
283.57
304.766
287.6
294.583
283.614
294.531
290.779
284.607
282.651
295.471
291.768
284.544
282.701
297.124
293.904
284.555
283.024
318.163
334.759
305.887
295.331
283.721
331.642
316.718
304.408
293.985
282.931
331.589
314.725
301.455
291.644
282.326
287.141
283.972
280.786
278.833
288.222
284.847
280.988
279.032
290.242
286.508
281.389
279.381
322.613
311.57
309.507
301.118
298.992
293.333
290.155
286.282
281.37
279.375
321.528
308.303
306.911
296.874
295.94
288.97
287.893
283.142
280.884
278.715
306.106
293.999
307.078
294.091
321.886
305.808
323.131
305.822
295.741
286.869
295.05
286.752
308.553
294.46
308.823
294.525
324.546
306.133
324.902
306.282
296.871
287.178
297.002
287.183
287.137
281.531
280.521
277.926
287.088
281.499
280.586
278.014
287.468
281.685
280.507
277.88
287.976
281.786
280.723
278.032
281.988
281.201
276.411
276.076
282.811
281.786
276.554
276.145
283.94
282.243
276.722
275.96
302.577
296.592
294.422
290.14
288.776
285.827
283.071
280.854
276.545
275.43
297.575
291.775
289.2
285.371
283.715
281.213
279.464
277.828
275.633
274.712
278.026
274.66
273.517
273.151
278.331
274.746
273.535
273.153
277.953
274.637
273.511
273.15
278.348
274.746
273.54
273.157
277.784
274.584
273.515
273.157
278.296
274.722
273.555
273.166
278.5
274.768
273.536
273.154
278.557
274.775
273.525
273.148
277.771
274.58
273.518
273.159
276.969
274.373
273.468
273.153
277.43
274.49
273.508
273.163
276.869
274.349
273.466
273.156
278.022
274.645
273.518
273.152
277.046
274.391
273.467
273.151
278.153
274.675
273.518
273.152
277.084
274.397
273.467
273.151
277.517
274.521
273.493
273.152
276.894
274.356
273.459
273.151
277.429
274.495
273.489
273.152
276.859
274.346
273.456
273.151
277.297
274.456
273.487
273.154
276.839
274.339
273.455
273.151
277.012
274.382
273.475
273.156
276.763
274.32
273.455
273.153
276.744
274.318
273.463
273.157
276.378
274.233
273.404
273.146
276.078
274.172
273.384
273.139
276.392
274.235
273.407
273.148
276.091
274.174
273.385
273.14
276.41
274.237
273.406
273.148
276.106
274.176
273.384
273.14
276.403
274.235
273.41
273.15
276.1
274.175
273.385
273.14
276.362
274.229
273.417
273.152
276.051
274.168
273.385
273.141
276.305
274.22
273.41
273.149
275.949
274.151
273.384
273.14
276.319
274.223
273.413
273.15
275.985
274.159
273.385
273.141
276.3
274.218
273.403
273.146
275.939
274.148
273.381
273.139
276.308
274.216
273.4
273.145
275.943
274.145
273.378
273.138
273.048
273.015
273.005
273.001
273
273.048
273.015
273.005
273.001
273
273.048
273.015
273.005
273.001
273
273.048
273.015
273.005
273.001
273
273.048
273.015
273.005
273.001
273
273.048
273.015
273.005
273.001
273
273.048
273.015
273.005
273.001
273
273.047
273.015
273.005
273.001
273
273.048
273.015
273.005
273.001
273
273.048
273.015
273.005
273.001
273
273.048
273.015
273.005
273.001
273
273.048
273.015
273.005
273.001
273
273.047
273.015
273.005
273.001
273
273.047
273.015
273.005
273.001
273
273.047
273.015
273.005
273.001
273
273.047
273.015
273.005
273.001
273
273.047
273.015
273.005
273.001
273
273.047
273.015
273.005
273.001
273
273.047
273.015
273.005
273.001
273
273.047
273.015
273.005
273.001
273
273.048
273.015
273.005
273.001
273
273.048
273.015
273.005
273.001
273
273.048
273.015
273.005
273.001
273
273.048
273.015
273.005
273.001
273
273.048
273.015
273.005
273.001
273
467.396
463.276
468.39
464.251
470.688
466.533
474.767
470.328
481.205
476.408
490.78
491.126
487.964
486.571
491.938
492.967
492.353
493.239
550.376
567.274
571.118
572.139
572.435
531.296
561.119
569.139
571.298
571.926
550.814
567.387
571.152
572.152
572.443
531.917
561.289
569.173
571.314
571.932
551.311
567.493
571.176
572.16
572.447
532.728
561.469
569.213
571.324
571.936
552.292
567.711
571.232
572.18
572.459
534.026
561.756
569.276
571.342
571.946
553.905
568.069
571.328
572.216
572.48
536.043
562.209
569.383
571.376
571.963
554.931
568.105
571.285
572.179
572.449
540.133
563.008
569.532
571.401
571.965
554.76
568.157
571.327
572.207
572.471
538.676
562.752
569.505
571.411
571.979
554.923
568.05
571.252
572.159
572.432
540.783
563.117
569.531
571.387
571.951
555.046
568.07
571.253
572.157
572.43
540.887
563.136
569.516
571.374
571.941
372.338
416.901
410.682
365.147
350.53
360.547
348.05
360.278
381.117
407.724
386.084
409.728
273.01
273.018
273.038
273.085
273.19
273.417
273.017
273.028
273.058
273.124
273.259
273.524
273.006
273.005
273.012
273.01
273.029
273.026
273.068
273.065
273.158
273.157
273.344
273.32
273.9
274.86
276.635
279.655
283.41
286.092
274.021
274.883
276.249
278.131
280.133
281.461
273.009
273.007
273.005
273.003
273.001
273.015
273.012
273.009
273.005
273.002
273.033
273.026
273.019
273.011
273.004
273.073
273.058
273.041
273.024
273.008
273.162
273.127
273.089
273.052
273.017
273.353
273.275
273.191
273.111
273.036
273.014
273.011
273.008
273.005
273.002
273.024
273.019
273.014
273.008
273.003
273.05
273.04
273.028
273.016
273.005
273.106
273.083
273.058
273.034
273.011
273.22
273.172
273.12
273.069
273.023
273.442
273.343
273.238
273.137
273.045
273.006
273.005
273.003
273.002
273.001
273.004
273.003
273.002
273.001
273
273.011
273.009
273.006
273.004
273.001
273.009
273.007
273.005
273.003
273.001
273.025
273.02
273.014
273.008
273.003
273.022
273.018
273.013
273.007
273.002
273.059
273.047
273.033
273.019
273.006
273.056
273.045
273.032
273.019
273.006
273.135
273.106
273.075
273.044
273.014
273.134
273.106
273.075
273.044
273.014
273.292
273.229
273.159
273.092
273.03
273.272
273.214
273.149
273.087
273.028
273.755
273.582
273.4
273.23
273.075
274.54
274.173
273.797
273.454
273.147
275.964
275.222
274.49
273.843
273.272
278.31
276.906
275.583
274.451
273.469
281.085
278.829
276.808
275.132
273.695
283.009
280.136
277.632
275.59
273.85
273.855
273.658
273.452
273.259
273.084
274.562
274.191
273.81
273.462
273.149
275.665
275.01
274.354
273.768
273.248
277.156
276.096
275.067
274.166
273.376
278.704
277.203
275.784
274.565
273.505
279.714
277.916
276.242
274.82
273.589
273.01
273.018
273.039
273.086
273.192
273.421
273.017
273.028
273.058
273.124
273.26
273.526
273.006
273.005
273.012
273.01
273.029
273.026
273.069
273.067
273.161
273.161
273.353
273.339
273.908
274.867
276.634
279.625
283.354
286.062
274.022
274.882
276.24
278.111
280.107
281.449
273.009
273.007
273.005
273.003
273.001
273.015
273.012
273.009
273.005
273.002
273.033
273.026
273.019
273.011
273.004
273.074
273.058
273.041
273.024
273.008
273.163
273.129
273.09
273.053
273.017
273.357
273.279
273.194
273.113
273.037
273.014
273.011
273.008
273.005
273.002
273.024
273.019
273.014
273.008
273.003
273.05
273.04
273.028
273.016
273.005
273.106
273.084
273.059
273.034
273.011
273.22
273.173
273.121
273.07
273.023
273.444
273.345
273.239
273.138
273.045
273.006
273.005
273.003
273.002
273.001
273.004
273.003
273.002
273.001
273
273.011
273.009
273.006
273.004
273.001
273.009
273.007
273.005
273.003
273.001
273.025
273.02
273.014
273.008
273.003
273.022
273.018
273.013
273.008
273.002
273.059
273.047
273.033
273.02
273.006
273.058
273.046
273.033
273.019
273.006
273.138
273.109
273.077
273.045
273.015
273.138
273.11
273.077
273.045
273.015
273.301
273.236
273.165
273.096
273.031
273.289
273.228
273.16
273.093
273.03
273.762
273.59
273.406
273.234
273.076
274.55
274.183
273.806
273.461
273.149
275.969
275.232
274.501
273.851
273.275
278.296
276.905
275.589
274.458
273.472
281.049
278.811
276.803
275.132
273.696
282.989
280.124
277.628
275.589
273.85
273.857
273.661
273.454
273.261
273.085
274.563
274.194
273.813
273.465
273.15
275.661
275.01
274.357
273.77
273.249
277.144
276.092
275.067
274.167
273.377
278.687
277.194
275.78
274.564
273.506
279.706
277.911
276.24
274.819
273.588
307.869
294.742
274.574
273.73
273.794
273.591
274.085
303.851
297.673
287.766
289.729
278.454
282.01
276.591
277.414
275.969
302.973
285.555
277.926
277.13
280.036
278.662
276.476
275.65
274.799
274.371
275.912
275.474
305.485
290.568
295.283
284.093
280.684
286.523
276.42
274.655
277.106
295.806
287.775
282.447
278.375
275.001
288.69
283.837
279.931
276.886
274.329
274.311
274.005
273.687
273.394
273.128
273.616
273.479
273.332
273.192
273.062
273.672
273.524
273.364
273.211
273.069
273.502
273.392
273.273
273.158
273.052
273.912
273.706
273.487
273.281
273.091
294.253
287.006
282.003
278.111
274.939
290.215
284.341
280.259
277.05
274.356
284.187
280.944
278.139
275.865
273.947
285.112
281.098
278.189
275.865
273.924
277.38
276.242
275.154
274.211
273.39
280.022
278.078
276.319
274.85
273.596
275.938
275.211
274.488
273.842
273.272
276.588
275.682
274.794
274.012
273.326
275.448
274.855
274.255
273.713
273.23
293.664
286.635
281.787
277.997
274.903
282.647
279.918
277.509
275.527
273.838
276.98
275.962
274.977
274.116
273.361
276.356
275.511
274.683
273.953
273.308
278.585
277.099
275.711
274.526
273.497
277.555
276.377
275.248
274.268
273.411
275.84
275.136
274.437
273.815
273.264
275.187
274.661
274.126
273.641
273.207
274.503
274.155
273.791
273.453
273.147
274.15
273.888
273.611
273.351
273.114
275.398
274.816
274.229
273.699
273.226
275.046
274.556
274.056
273.602
273.195
294.713
287.193
282.114
278.194
274.975
285.978
282.088
278.858
276.287
274.111
289.405
284.208
280.24
277.074
274.41
281.613
279.216
277.066
275.281
273.748
279.103
277.477
275.958
274.664
273.541
283.38
280.438
277.843
275.715
273.9
275.798
275.106
274.419
273.805
273.26
274.38
274.059
273.724
273.415
273.134
276.338
275.499
274.676
273.948
273.307
273.424
274.319
275.352
276.548
277.804
278.995
428.565
419.641
392.503
400.607
405.808
393.314
379.63
366.294
453.59
474.918
443.691
461.816
429.158
416.893
443.864
411.424
404.374
379.055
385.316
393.079
382.644
368.866
358.084
434.718
446.923
426.272
435.955
412.92
402.238
421.101
387.097
382.282
360.036
364.186
374.233
366.584
353.014
345.031
406.308
415.054
399.964
407.219
390.357
382.28
396.399
361.001
357.924
339.785
342.413
352.358
346.538
335.171
329.524
377.74
386
373.206
380.192
366.137
359.14
371.777
341.696
339.619
324.968
326.744
335.574
331.268
321.766
317.622
355.735
365.026
352.369
360.76
347.517
342.083
354.326
328.519
326.986
314.884
316.192
324.061
321.148
312.466
309.359
341.406
353.341
338.733
349.376
335.4
331.341
343.355
340.55
337.24
362.839
368.239
332.737
327.52
354.351
344.626
320.298
303.934
319.494
305.246
316.172
315.589
307.344
334.151
331.221
353.465
357.929
327.235
322.694
346.359
337.986
314.702
299.646
314.049
300.973
310.996
310.823
302.768
324.107
321.808
339.507
342.706
318.683
315.017
334.301
327.967
308.231
295.024
307.6
296.074
305.178
305.034
297.539
312.244
310.635
323.95
326.066
308.235
305.128
320.424
315.609
300.346
290.391
299.915
291.096
298.087
297.781
292.216
303.286
302.139
312.463
313.927
300.383
297.974
309.973
306.425
294.285
287.336
293.997
287.734
292.805
292.476
288.559
297.165
296.312
304.657
305.742
295.13
293.504
302.779
300.145
290.553
285.542
290.358
285.795
289.533
289.379
286.446
521.533
546.412
505.309
535.273
484.477
521.837
451.936
494.426
452.674
486.138
482.31
515.911
501.152
530.79
514.839
541.554
469.963
439.215
500.245
455.939
435.95
405.64
464.712
419.178
531.752
541.299
552.246
557.622
515.019
526.897
541.855
549.797
516.167
491.497
481.248
464.678
507.064
530.861
529.231
528.768
471.3
477.313
498.29
496.617
432.923
437.247
537.881
541.317
498.486
507.848
551.133
555.684
547.515
562.358
562.167
568.732
535.233
557.199
556.044
566.178
512.101
546.504
533.506
557.554
548.446
563.687
554.116
565.802
416.009
398.127
427.719
402.038
382.024
367.674
392.291
370.887
462.595
435.553
449.997
430.449
435.649
403.662
437.294
402.906
399.093
372.198
400.211
371.382
471.01
437.825
473.098
437.427
496.849
542.365
474.216
525.478
483.948
534.301
467.332
518.826
505.456
546.822
477.452
528.872
508.063
548.406
477.595
530.259
531.954
502.436
553.987
532.468
513.791
484.917
546.193
522.189
488.917
463.626
533.404
508.621
391.472
354.884
428.662
464.486
517.994
347.707
382.656
417.301
449.111
497.118
354.688
387.251
421.018
456.775
505.675
450.556
406.886
458.667
416.549
442.439
402.284
456.718
414.95
431.969
395.539
454.812
414.289
334.869
319.666
367.925
347.08
398.368
371.648
425.876
393.522
456.921
419.47
340.397
323.819
371.885
353.403
403.663
380.815
435.325
406.939
466.251
433.663
379.359
369.027
379.009
370.934
347.267
327.26
348.126
328.857
411.099
404.966
411.644
402.086
376.68
370.948
376.137
370.929
347.327
329.503
346.846
329.357
408.241
404.906
407.787
405.095
445.248
437.899
476.515
467.721
444.702
433.29
475.264
461.965
443.556
438.384
476.446
469.303
441.623
437.284
474.443
467.658
362.668
330.98
315.415
366.802
332.512
316.285
361.4
329.589
313.65
366.379
331.448
314.629
356.552
325.536
309.93
366.529
329.787
312.148
303.621
291.753
285.699
323.38
303.791
293.592
341.003
314.345
300.528
355.398
323.046
306.65
369.863
329.615
310
306.57
292.539
285.361
330.467
307.572
295.025
349.775
318.637
301.648
366.146
327.015
306.459
378.063
332.299
309.245
359.259
348.544
365.807
354.558
394.482
373.94
408.79
383.383
335.287
315.079
336.311
316.347
336.687
317.376
338.259
318.599
337.311
333.869
335.865
331.07
320.223
322.705
358.633
360.711
390.11
392.845
339.759
342.835
338.969
340.501
324.612
326.24
297.729
285.018
301.122
286.687
299.327
285.214
302.55
287
302.004
285.531
306.664
287.891
308.811
289.171
308.946
289.456
329.844
319.709
336.763
322.275
353.151
340.837
361.49
343.765
318.52
305.779
312.924
303.695
340.34
323.314
341.123
323.002
366.303
344.938
367.198
344.345
321.237
306.675
321.855
306.545
302.237
286.014
293.978
283.173
297.988
284.304
292.398
282.376
304.441
287.133
294.69
283.565
305.084
287.651
294.676
283.621
286.653
280.856
281.637
278.671
287.818
282.055
281.758
278.985
290.195
284.825
282.197
279.869
311.366
328.716
299.633
291.478
282.075
323.214
307.038
294.769
287.929
280.625
328.454
310.946
298.33
289.534
281.269
277.501
275.521
276.631
275.22
278.464
276.131
277.037
275.543
280.591
277.536
277.901
276.205
312.435
301.058
298.481
289.931
289.283
283.535
283.753
279.728
278.975
277.055
316.245
302.751
301.432
291.329
291.735
284.797
285.194
280.483
279.675
277.505
305.135
292.156
307.476
293.822
321.771
304.185
324.235
305.903
295.734
286.51
293.945
285.249
309.062
294.598
309.016
294.604
325.44
306.508
325.216
306.439
297.097
287.192
297.101
287.215
286.964
281.228
280.351
277.736
286.191
280.495
280.082
277.488
287.508
281.645
280.469
277.832
288.011
281.791
280.721
278.026
274.147
273.546
273.325
273.756
273.313
273.174
274.533
273.756
273.463
273.936
273.411
273.235
275.357
274.218
273.768
274.268
273.56
273.321
290.448
283.4
279.999
282.949
278.807
276.908
278.996
276.378
275.251
276.546
274.816
274.12
274.615
273.68
273.369
290.99
282.862
279.163
283.389
278.404
276.309
279.428
276.207
274.915
276.802
274.775
274.014
274.667
273.662
273.338
277.44
274.449
273.452
273.132
277.967
274.585
273.48
273.136
277.424
274.444
273.453
273.134
278.076
274.615
273.494
273.143
277.338
274.418
273.464
273.142
278.103
274.622
273.517
273.154
278.424
274.713
273.514
273.146
278.539
274.757
273.518
273.146
277.606
274.501
273.488
273.148
276.849
274.315
273.445
273.144
277.082
274.357
273.463
273.149
276.616
274.247
273.43
273.144
277.96
274.604
273.501
273.146
276.997
274.362
273.454
273.145
278.138
274.662
273.513
273.15
277.07
274.389
273.463
273.149
276.577
274.234
273.411
273.129
275.669
273.998
273.36
273.124
276.553
274.225
273.413
273.131
275.723
274.011
273.363
273.126
276.554
274.221
273.419
273.136
275.891
274.052
273.375
273.129
276.431
274.188
273.417
273.139
276.014
274.082
273.387
273.134
276.307
274.163
273.413
273.142
275.045
273.836
273.298
273.114
274.732
273.76
273.271
273.103
275.154
273.865
273.307
273.117
274.842
273.79
273.279
273.106
275.362
273.919
273.32
273.121
275.041
273.845
273.292
273.11
275.627
273.987
273.341
273.128
275.287
273.911
273.309
273.115
275.886
274.062
273.365
273.134
275.513
273.979
273.327
273.121
276.186
274.165
273.388
273.14
275.808
274.087
273.361
273.131
276.068
274.123
273.378
273.137
275.687
274.042
273.346
273.126
276.251
274.192
273.391
273.141
275.884
274.119
273.369
273.134
276.295
274.209
273.397
273.143
275.929
274.137
273.375
273.136
273.042
273.014
273.004
273.001
273
273.043
273.014
273.004
273.001
273
273.043
273.014
273.004
273.001
273
273.044
273.014
273.004
273.001
273
273.044
273.014
273.004
273.001
273
273.044
273.014
273.004
273.001
273
273.045
273.015
273.004
273.001
273
273.046
273.015
273.005
273.001
273
273.045
273.014
273.004
273.001
273
273.045
273.014
273.004
273.001
273
273.044
273.014
273.004
273.001
273
273.044
273.014
273.004
273.001
273
273.045
273.015
273.004
273.001
273
273.045
273.015
273.004
273.001
273
273.046
273.015
273.005
273.001
273
273.046
273.015
273.005
273.001
273
273.041
273.013
273.004
273.001
273
273.041
273.013
273.004
273.001
273
273.042
273.014
273.004
273.001
273
273.041
273.014
273.004
273.001
273
273.043
273.014
273.004
273.001
273
273.042
273.014
273.004
273.001
273
273.044
273.014
273.004
273.001
273
273.043
273.014
273.004
273.001
273
273.044
273.014
273.004
273.001
273
470.998
464.456
471.477
465.16
473.033
467.169
476.395
470.774
482.484
476.935
491.664
492.025
489.177
487.663
492.462
493.51
492.524
493.416
551.047
567.423
571.156
572.151
572.441
532.093
561.352
569.197
571.313
571.932
551.278
567.481
571.172
572.157
572.444
532.573
561.48
569.219
571.324
571.935
551.694
567.573
571.194
572.164
572.448
533.269
561.632
569.252
571.333
571.939
552.584
567.776
571.247
572.183
572.459
534.461
561.89
569.309
571.349
571.948
554.135
568.118
571.338
572.218
572.481
536.42
562.319
569.409
571.381
571.964
555.08
568.132
571.291
572.181
572.449
540.422
563.073
569.545
571.404
571.966
554.961
568.195
571.335
572.209
572.471
539.047
562.841
569.525
571.415
571.979
555.013
568.067
571.255
572.159
572.432
540.957
563.155
569.539
571.388
571.951
555.075
568.075
571.254
572.157
572.43
540.944
563.148