/*--------------------------------*- C++ -*----------------------------------*\
  =========                 |
  \\      /  F ield         | OpenFOAM: The Open Source CFD Toolbox
   \\    /   O peration     | Website:  https://openfoam.org
    \\  /    A nd           | Version:  11
     \\/     M anipulation  |
\*---------------------------------------------------------------------------*/
FoamFile
{
    format      ascii;
    class       volScalarField;
    location    "9.5";
    object      epsilon;
}
// * * * * * * * * * * * * * * * * * * * * * * * * * * * * * * * * * * * * * //

dimensions      [0 2 -3 0 0 0 0];

internalField   nonuniform List<scalar> 
700
(
1.74245e-05
1.74245e-05
1.74245e-05
1.74245e-05
1.74245e-05
1.74245e-05
1.74245e-05
1.74245e-05
1.74245e-05
1.74245e-05
1.74245e-05
1.74245e-05
1.74245e-05
1.74245e-05
1.74245e-05
1.74245e-05
1.74245e-05
1.74245e-05
1.74245e-05
1.74245e-05
1.74245e-05
1.74245e-05
1.74245e-05
1.74245e-05
1.74245e-05
1.74245e-05
1.74245e-05
1.74245e-05
1.74245e-05
1.74245e-05
1.74245e-05
1.74245e-05
1.74245e-05
1.74245e-05
1.74245e-05
1.74245e-05
1.74245e-05
1.74245e-05
1.74245e-05
1.74245e-05
1.74245e-05
1.74245e-05
1.74245e-05
1.74245e-05
1.74245e-05
1.74245e-05
1.74245e-05
1.74245e-05
1.74245e-05
1.74245e-05
1.74246e-05
1.74245e-05
1.74245e-05
1.74245e-05
1.74245e-05
1.74245e-05
1.74245e-05
1.74245e-05
1.74245e-05
1.74245e-05
1.74247e-05
1.74246e-05
1.74246e-05
1.74246e-05
1.74246e-05
1.74245e-05
1.74245e-05
1.74245e-05
1.74245e-05
1.74245e-05
1.74269e-05
1.74263e-05
1.74256e-05
1.7425e-05
1.74247e-05
1.74246e-05
1.74244e-05
1.74242e-05
1.7424e-05
1.74237e-05
1.74623e-05
1.74509e-05
1.74391e-05
1.74312e-05
1.7427e-05
1.74248e-05
1.7423e-05
1.74204e-05
1.74165e-05
1.74121e-05
1.78881e-05
1.77056e-05
1.75641e-05
1.74832e-05
1.74438e-05
1.7424e-05
1.74081e-05
1.73853e-05
1.73454e-05
1.7274e-05
1.95248e-05
1.8544e-05
1.79206e-05
1.76268e-05
1.74911e-05
1.7421e-05
1.73712e-05
1.73248e-05
1.72791e-05
1.72638e-05
1.9057e-05
1.8614e-05
1.80793e-05
1.77555e-05
1.75764e-05
1.74788e-05
1.74184e-05
1.73695e-05
1.73196e-05
1.72776e-05
1.83657e-05
1.83555e-05
1.80518e-05
1.78151e-05
1.76515e-05
1.75461e-05
1.74785e-05
1.74304e-05
1.7388e-05
1.73458e-05
1.75456e-05
1.78535e-05
1.78051e-05
1.77242e-05
1.76418e-05
1.75717e-05
1.75174e-05
1.74762e-05
1.74424e-05
1.74103e-05
1.67176e-05
1.72105e-05
1.73784e-05
1.74625e-05
1.74956e-05
1.75001e-05
1.74907e-05
1.74759e-05
1.74594e-05
1.74419e-05
1.60191e-05
1.65734e-05
1.6885e-05
1.70977e-05
1.72377e-05
1.7326e-05
1.73788e-05
1.74083e-05
1.74228e-05
1.74281e-05
1.5579e-05
1.61134e-05
1.64924e-05
1.67754e-05
1.69826e-05
1.71311e-05
1.7235e-05
1.73059e-05
1.73528e-05
1.7383e-05
1.54876e-05
1.59709e-05
1.63543e-05
1.66495e-05
1.68736e-05
1.70408e-05
1.71635e-05
1.72517e-05
1.7314e-05
1.73571e-05
1.57822e-05
1.62002e-05
1.65296e-05
1.6781e-05
1.6971e-05
1.71129e-05
1.72175e-05
1.72938e-05
1.73491e-05
1.73894e-05
1.64893e-05
1.67402e-05
1.69259e-05
1.70723e-05
1.71854e-05
1.72711e-05
1.73358e-05
1.7386e-05
1.74281e-05
1.74688e-05
1.71402e-05
1.71232e-05
1.71729e-05
1.72362e-05
1.72945e-05
1.73425e-05
1.738e-05
1.7409e-05
1.74315e-05
1.7448e-05
1.72578e-05
1.72612e-05
1.7283e-05
1.73139e-05
1.73454e-05
1.73733e-05
1.73961e-05
1.74139e-05
1.74273e-05
1.74363e-05
1.73333e-05
1.73374e-05
1.73482e-05
1.73634e-05
1.73797e-05
1.73949e-05
1.74078e-05
1.74179e-05
1.74255e-05
1.74304e-05
1.73774e-05
1.73799e-05
1.73853e-05
1.73926e-05
1.74008e-05
1.74086e-05
1.74154e-05
1.74208e-05
1.74248e-05
1.74274e-05
1.74016e-05
1.74029e-05
1.74054e-05
1.74089e-05
1.74128e-05
1.74166e-05
1.74199e-05
1.74227e-05
1.74247e-05
1.74259e-05
1.74141e-05
1.74147e-05
1.74158e-05
1.74174e-05
1.74191e-05
1.74209e-05
1.74224e-05
1.74237e-05
1.74246e-05
1.74252e-05
1.74201e-05
1.74204e-05
1.74208e-05
1.74215e-05
1.74222e-05
1.7423e-05
1.74237e-05
1.74242e-05
1.74246e-05
1.74249e-05
1.74228e-05
1.74229e-05
1.74231e-05
1.74234e-05
1.74237e-05
1.7424e-05
1.74242e-05
1.74245e-05
1.74246e-05
1.74247e-05
1.74239e-05
1.7424e-05
1.74241e-05
1.74241e-05
1.74243e-05
1.74244e-05
1.74245e-05
1.74246e-05
1.74246e-05
1.74247e-05
1.74243e-05
1.74244e-05
1.74244e-05
1.74244e-05
1.74245e-05
1.74245e-05
1.74245e-05
1.74246e-05
1.74246e-05
1.74246e-05
1.74246e-05
1.74246e-05
1.74246e-05
1.74246e-05
1.74246e-05
1.74246e-05
1.74246e-05
1.74246e-05
1.74246e-05
1.74246e-05
1.74246e-05
1.74246e-05
1.74246e-05
1.74246e-05
1.74246e-05
1.74246e-05
1.74246e-05
1.74246e-05
1.74246e-05
1.74246e-05
1.74246e-05
1.74246e-05
1.74246e-05
1.74246e-05
1.74246e-05
1.74246e-05
1.74246e-05
1.74246e-05
1.74246e-05
1.74246e-05
1.74246e-05
1.74246e-05
1.74246e-05
1.74246e-05
1.74246e-05
1.74246e-05
1.74246e-05
1.74246e-05
1.74246e-05
1.74246e-05
1.74246e-05
1.74246e-05
1.74246e-05
1.74246e-05
1.74246e-05
1.74246e-05
1.74246e-05
1.74246e-05
1.74246e-05
1.74246e-05
1.74246e-05
1.74246e-05
1.74246e-05
1.74246e-05
1.74246e-05
1.74246e-05
1.74246e-05
1.74246e-05
1.74246e-05
1.74246e-05
1.74246e-05
1.74246e-05
1.74246e-05
1.74246e-05
1.74246e-05
1.74246e-05
1.74246e-05
1.74246e-05
1.74246e-05
1.74246e-05
1.74246e-05
1.74246e-05
1.74246e-05
1.74246e-05
1.74246e-05
1.74246e-05
1.74246e-05
1.74246e-05
1.74246e-05
1.74246e-05
1.74246e-05
1.74246e-05
1.74246e-05
1.74246e-05
1.74246e-05
1.74246e-05
1.74246e-05
1.74246e-05
1.74246e-05
1.74246e-05
1.74246e-05
1.74246e-05
1.74246e-05
1.74246e-05
1.74246e-05
1.74246e-05
1.74246e-05
1.74246e-05
1.74246e-05
1.74246e-05
1.74752e-05
1.74838e-05
1.74938e-05
1.75039e-05
1.75119e-05
1.75164e-05
1.75168e-05
1.75129e-05
1.75051e-05
1.74959e-05
1.74595e-05
1.74667e-05
1.74732e-05
1.74763e-05
1.74742e-05
1.74669e-05
1.74556e-05
1.74414e-05
1.74254e-05
1.74092e-05
1.74546e-05
1.74595e-05
1.74621e-05
1.74599e-05
1.74524e-05
1.74406e-05
1.74264e-05
1.7411e-05
1.73953e-05
1.73797e-05
1.74558e-05
1.74593e-05
1.7459e-05
1.74538e-05
1.74446e-05
1.74332e-05
1.74214e-05
1.74105e-05
1.74011e-05
1.73941e-05
1.74637e-05
1.74682e-05
1.74658e-05
1.7458e-05
1.74475e-05
1.74368e-05
1.74278e-05
1.74216e-05
1.74192e-05
1.74222e-05
1.74801e-05
1.74905e-05
1.74866e-05
1.74745e-05
1.74599e-05
1.74464e-05
1.7436e-05
1.74291e-05
1.74263e-05
1.74288e-05
1.75078e-05
1.75335e-05
1.75289e-05
1.7509e-05
1.74851e-05
1.74627e-05
1.74434e-05
1.74266e-05
1.74117e-05
1.73991e-05
1.75509e-05
1.76087e-05
1.76048e-05
1.75722e-05
1.75316e-05
1.74913e-05
1.74514e-05
1.7409e-05
1.73634e-05
1.73219e-05
1.76168e-05
1.77337e-05
1.77304e-05
1.76786e-05
1.76131e-05
1.75432e-05
1.74638e-05
1.73641e-05
1.72421e-05
1.71326e-05
1.76852e-05
1.79348e-05
1.79542e-05
1.78992e-05
1.78216e-05
1.77293e-05
1.76037e-05
1.74048e-05
1.70695e-05
1.64983e-05
1.74558e-05
1.74508e-05
1.74472e-05
1.74465e-05
1.74487e-05
1.74527e-05
1.7456e-05
1.74512e-05
1.7419e-05
1.73035e-05
1.74405e-05
1.74399e-05
1.74382e-05
1.74367e-05
1.74357e-05
1.74343e-05
1.74304e-05
1.74201e-05
1.73985e-05
1.73662e-05
1.74327e-05
1.74328e-05
1.74317e-05
1.74301e-05
1.7428e-05
1.74251e-05
1.74202e-05
1.74122e-05
1.7401e-05
1.73902e-05
1.74286e-05
1.74286e-05
1.74278e-05
1.74264e-05
1.74244e-05
1.74216e-05
1.74178e-05
1.74127e-05
1.7407e-05
1.74027e-05
1.74265e-05
1.74264e-05
1.74257e-05
1.74247e-05
1.74231e-05
1.74211e-05
1.74185e-05
1.74155e-05
1.74126e-05
1.74107e-05
1.74254e-05
1.74253e-05
1.74248e-05
1.74241e-05
1.74231e-05
1.74218e-05
1.74202e-05
1.74185e-05
1.7417e-05
1.74161e-05
1.74249e-05
1.74248e-05
1.74245e-05
1.74241e-05
1.74235e-05
1.74227e-05
1.74218e-05
1.74209e-05
1.74201e-05
1.74196e-05
1.74247e-05
1.74246e-05
1.74245e-05
1.74242e-05
1.74238e-05
1.74234e-05
1.74229e-05
1.74224e-05
1.7422e-05
1.74218e-05
1.74246e-05
1.74246e-05
1.74245e-05
1.74243e-05
1.74241e-05
1.74239e-05
1.74236e-05
1.74234e-05
1.74232e-05
1.74231e-05
1.74246e-05
1.74246e-05
1.74245e-05
1.74244e-05
1.74243e-05
1.74242e-05
1.7424e-05
1.74239e-05
1.74238e-05
1.74237e-05
1.74246e-05
1.74246e-05
1.74246e-05
1.74246e-05
1.74245e-05
1.74245e-05
1.74245e-05
1.74245e-05
1.74245e-05
1.74245e-05
1.74246e-05
1.74246e-05
1.74246e-05
1.74246e-05
1.74246e-05
1.74246e-05
1.74246e-05
1.74246e-05
1.74246e-05
1.74245e-05
1.74246e-05
1.74246e-05
1.74246e-05
1.74246e-05
1.74246e-05
1.74246e-05
1.74246e-05
1.74246e-05
1.74246e-05
1.74245e-05
1.74246e-05
1.74246e-05
1.74246e-05
1.74246e-05
1.74246e-05
1.74246e-05
1.74246e-05
1.74246e-05
1.74246e-05
1.74245e-05
1.74246e-05
1.74246e-05
1.74246e-05
1.74246e-05
1.74246e-05
1.74246e-05
1.74246e-05
1.74246e-05
1.74246e-05
1.74245e-05
1.74246e-05
1.74246e-05
1.74246e-05
1.74246e-05
1.74246e-05
1.74246e-05
1.74246e-05
1.74246e-05
1.74246e-05
1.74245e-05
1.74246e-05
1.74246e-05
1.74246e-05
1.74246e-05
1.74246e-05
1.74246e-05
1.74246e-05
1.74246e-05
1.74246e-05
1.74245e-05
1.74246e-05
1.74246e-05
1.74246e-05
1.74246e-05
1.74246e-05
1.74246e-05
1.74246e-05
1.74246e-05
1.74246e-05
1.74245e-05
1.74246e-05
1.74246e-05
1.74246e-05
1.74246e-05
1.74246e-05
1.74246e-05
1.74246e-05
1.74246e-05
1.74246e-05
1.74245e-05
1.74246e-05
1.74246e-05
1.74246e-05
1.74246e-05
1.74246e-05
1.74246e-05
1.74246e-05
1.74246e-05
1.74246e-05
1.74245e-05
)
;

boundaryField
{
    defaultFaces
    {
        type            empty;
    }
}


// ************************************************************************* //
