/*--------------------------------*- C++ -*----------------------------------*\
  =========                 |
  \\      /  F ield         | OpenFOAM: The Open Source CFD Toolbox
   \\    /   O peration     | Website:  https://openfoam.org
    \\  /    A nd           | Version:  11
     \\/     M anipulation  |
\*---------------------------------------------------------------------------*/
FoamFile
{
    format      ascii;
    class       volScalarField;
    location    "9.5";
    object      k;
}
// * * * * * * * * * * * * * * * * * * * * * * * * * * * * * * * * * * * * * //

dimensions      [0 2 -2 0 0 0 0];

internalField   nonuniform List<scalar> 
700
(
0.00016123
0.00016123
0.00016123
0.00016123
0.00016123
0.00016123
0.00016123
0.00016123
0.00016123
0.00016123
0.00016123
0.00016123
0.00016123
0.00016123
0.00016123
0.00016123
0.00016123
0.00016123
0.00016123
0.00016123
0.00016123
0.00016123
0.00016123
0.00016123
0.00016123
0.00016123
0.00016123
0.00016123
0.00016123
0.00016123
0.00016123
0.00016123
0.00016123
0.00016123
0.00016123
0.00016123
0.00016123
0.00016123
0.00016123
0.00016123
0.00016123
0.00016123
0.00016123
0.00016123
0.00016123
0.00016123
0.00016123
0.00016123
0.00016123
0.00016123
0.00016123
0.00016123
0.00016123
0.00016123
0.00016123
0.00016123
0.00016123
0.00016123
0.00016123
0.00016123
0.000161232
0.000161232
0.000161231
0.000161231
0.000161231
0.00016123
0.00016123
0.00016123
0.00016123
0.00016123
0.000161259
0.000161252
0.000161244
0.000161237
0.000161233
0.000161231
0.000161229
0.000161226
0.000161223
0.000161221
0.00016165
0.000161532
0.000161403
0.000161313
0.000161262
0.000161233
0.000161211
0.000161181
0.000161138
0.000161095
0.000165975
0.0001642
0.000162769
0.000161909
0.000161463
0.000161225
0.000161039
0.000160795
0.000160396
0.000159718
0.000181459
0.000172257
0.000166299
0.000163391
0.000161983
0.000161226
0.000160692
0.000160216
0.000159762
0.000159602
0.000177026
0.000172894
0.000167828
0.000164678
0.000162872
0.000161846
0.000161194
0.000160674
0.000160166
0.000159745
0.000170324
0.000170298
0.000167481
0.000165228
0.000163622
0.000162549
0.000161834
0.000161314
0.000160862
0.000160424
0.000162349
0.000165319
0.000164951
0.000164235
0.000163467
0.000162786
0.000162236
0.000161801
0.000161437
0.000161092
0.000154346
0.000159015
0.000160676
0.000161544
0.000161914
0.000161993
0.00016192
0.00016178
0.000161612
0.000161426
0.000147653
0.000152846
0.000155818
0.00015788
0.000159266
0.000160161
0.000160713
0.000161031
0.000161195
0.00016126
0.000143476
0.000148444
0.000152004
0.000154696
0.000156698
0.000158159
0.000159202
0.000159929
0.000160424
0.00016075
0.000142631
0.000147103
0.000150682
0.000153468
0.000155612
0.000157239
0.000158455
0.000159348
0.000159992
0.000160447
0.000145438
0.000149304
0.000152378
0.000154752
0.000156573
0.000157956
0.000158994
0.000159767
0.000160343
0.000160781
0.000152108
0.00015444
0.00015619
0.000157592
0.000158693
0.000159545
0.000160203
0.000160734
0.000161211
0.000161708
0.000158246
0.000158106
0.000158595
0.00015922
0.000159804
0.000160292
0.00016068
0.000160988
0.00016124
0.00016144
0.000159427
0.000159471
0.000159695
0.000160011
0.000160336
0.000160627
0.000160868
0.000161058
0.000161206
0.000161312
0.000160206
0.000160253
0.000160369
0.000160531
0.000160706
0.000160869
0.000161009
0.000161121
0.000161205
0.000161263
0.000160679
0.000160708
0.000160768
0.00016085
0.000160941
0.000161029
0.000161105
0.000161167
0.000161214
0.000161245
0.000160949
0.000160965
0.000160994
0.000161035
0.000161081
0.000161126
0.000161165
0.000161198
0.000161222
0.000161238
0.000161095
0.000161103
0.000161117
0.000161137
0.000161158
0.00016118
0.000161199
0.000161216
0.000161227
0.000161235
0.00016117
0.000161174
0.00016118
0.000161189
0.000161199
0.000161209
0.000161218
0.000161225
0.00016123
0.000161234
0.000161206
0.000161207
0.00016121
0.000161214
0.000161218
0.000161222
0.000161226
0.00016123
0.000161232
0.000161233
0.000161222
0.000161222
0.000161223
0.000161225
0.000161227
0.000161228
0.00016123
0.000161231
0.000161232
0.000161233
0.000161227
0.000161228
0.000161228
0.000161229
0.00016123
0.00016123
0.000161231
0.000161232
0.000161232
0.000161232
0.000161231
0.000161231
0.000161231
0.000161231
0.000161231
0.000161231
0.000161231
0.000161231
0.000161231
0.000161231
0.000161231
0.000161231
0.000161231
0.000161231
0.000161231
0.000161231
0.000161231
0.000161231
0.000161231
0.000161231
0.000161231
0.000161231
0.000161231
0.000161231
0.000161231
0.000161231
0.000161231
0.000161231
0.000161231
0.000161231
0.000161231
0.000161231
0.000161231
0.000161231
0.000161231
0.000161231
0.000161231
0.000161231
0.000161231
0.000161231
0.000161231
0.000161231
0.000161231
0.000161231
0.000161231
0.000161231
0.000161231
0.000161231
0.000161231
0.000161231
0.000161231
0.000161231
0.000161231
0.000161231
0.000161231
0.000161231
0.000161231
0.000161231
0.000161231
0.000161231
0.000161231
0.000161231
0.000161231
0.000161231
0.000161231
0.000161231
0.000161231
0.000161231
0.000161231
0.000161231
0.000161231
0.000161231
0.000161231
0.000161231
0.000161231
0.000161231
0.000161231
0.000161231
0.000161231
0.000161231
0.000161231
0.000161231
0.000161231
0.000161231
0.000161231
0.000161231
0.000161231
0.000161231
0.000161231
0.000161231
0.000161231
0.000161231
0.000161231
0.000161231
0.000161231
0.000161231
0.000161231
0.000161231
0.000161231
0.000161231
0.000161794
0.000161897
0.000162005
0.000162099
0.000162159
0.000162181
0.000162166
0.000162121
0.000162043
0.00016195
0.000161591
0.000161684
0.000161768
0.000161806
0.000161777
0.000161687
0.000161552
0.000161387
0.000161203
0.000161016
0.00016153
0.000161583
0.000161612
0.000161587
0.0001615
0.000161366
0.000161205
0.000161032
0.000160858
0.000160689
0.000161551
0.000161582
0.000161574
0.000161516
0.000161415
0.000161292
0.000161165
0.000161047
0.000160946
0.000160873
0.000161644
0.000161687
0.000161659
0.000161578
0.000161468
0.000161356
0.000161259
0.000161191
0.000161164
0.000161198
0.00016182
0.000161926
0.000161889
0.000161769
0.000161619
0.000161477
0.000161362
0.000161284
0.000161252
0.000161282
0.000162099
0.00016236
0.000162325
0.000162133
0.00016189
0.000161654
0.000161443
0.000161257
0.000161094
0.000160967
0.00016252
0.000163092
0.000163073
0.000162764
0.00016236
0.000161942
0.000161517
0.000161065
0.000160592
0.000160182
0.000163147
0.000164279
0.000164275
0.000163791
0.000163148
0.000162438
0.00016162
0.000160608
0.00015941
0.000158376
0.000163788
0.000166159
0.000166372
0.000165858
0.000165096
0.000164162
0.000162895
0.000160945
0.00015777
0.000152489
0.000161548
0.000161487
0.000161453
0.000161458
0.000161494
0.000161547
0.00016159
0.000161558
0.000161268
0.000160203
0.000161368
0.00016137
0.000161361
0.000161358
0.00016136
0.000161357
0.000161328
0.00016124
0.000161045
0.000160748
0.000161294
0.000161302
0.000161299
0.000161291
0.000161278
0.000161255
0.000161214
0.000161144
0.000161042
0.000160943
0.000161261
0.000161266
0.000161262
0.000161252
0.000161237
0.000161213
0.000161178
0.000161132
0.00016108
0.00016104
0.000161246
0.000161247
0.000161243
0.000161234
0.000161221
0.000161202
0.000161178
0.00016115
0.000161122
0.000161104
0.000161239
0.000161238
0.000161235
0.000161228
0.000161218
0.000161205
0.00016119
0.000161173
0.000161158
0.000161149
0.000161235
0.000161234
0.000161231
0.000161227
0.00016122
0.000161212
0.000161203
0.000161194
0.000161185
0.00016118
0.000161233
0.000161233
0.000161231
0.000161228
0.000161224
0.000161219
0.000161214
0.000161209
0.000161204
0.000161201
0.000161233
0.000161232
0.000161231
0.000161229
0.000161227
0.000161224
0.000161221
0.000161218
0.000161216
0.000161214
0.000161232
0.000161232
0.000161231
0.00016123
0.000161228
0.000161227
0.000161225
0.000161223
0.000161222
0.000161221
0.000161231
0.000161231
0.000161231
0.000161231
0.000161231
0.000161231
0.000161231
0.00016123
0.00016123
0.00016123
0.000161231
0.000161231
0.000161231
0.000161231
0.000161231
0.000161231
0.000161231
0.000161231
0.000161231
0.00016123
0.000161231
0.000161231
0.000161231
0.000161231
0.000161231
0.000161231
0.000161231
0.000161231
0.000161231
0.00016123
0.000161231
0.000161231
0.000161231
0.000161231
0.000161231
0.000161231
0.000161231
0.000161231
0.000161231
0.00016123
0.000161231
0.000161231
0.000161231
0.000161231
0.000161231
0.000161231
0.000161231
0.000161231
0.000161231
0.00016123
0.000161231
0.000161231
0.000161231
0.000161231
0.000161231
0.000161231
0.000161231
0.000161231
0.000161231
0.00016123
0.000161231
0.000161231
0.000161231
0.000161231
0.000161231
0.000161231
0.000161231
0.000161231
0.000161231
0.00016123
0.000161231
0.000161231
0.000161231
0.000161231
0.000161231
0.000161231
0.000161231
0.000161231
0.000161231
0.00016123
0.000161231
0.000161231
0.000161231
0.000161231
0.000161231
0.000161231
0.000161231
0.000161231
0.000161231
0.00016123
0.000161231
0.000161231
0.000161231
0.000161231
0.000161231
0.000161231
0.000161231
0.000161231
0.000161231
0.00016123
)
;

boundaryField
{
    defaultFaces
    {
        type            empty;
    }
}


// ************************************************************************* //
