/*--------------------------------*- C++ -*----------------------------------*\
  =========                 |
  \\      /  F ield         | OpenFOAM: The Open Source CFD Toolbox
   \\    /   O peration     | Website:  https://openfoam.org
    \\  /    A nd           | Version:  11
     \\/     M anipulation  |
\*---------------------------------------------------------------------------*/
FoamFile
{
    format      ascii;
    class       volScalarField;
    location    "9.5";
    object      k;
}
// * * * * * * * * * * * * * * * * * * * * * * * * * * * * * * * * * * * * * //

dimensions      [0 2 -2 0 0 0 0];

internalField   nonuniform List<scalar> 
2200
(
0.00016123
0.00016123
0.00016123
0.00016123
0.00016123
0.00016123
0.00016123
0.00016123
0.00016123
0.00016123
0.00016123
0.00016123
0.00016123
0.00016123
0.00016123
0.00016123
0.00016123
0.00016123
0.00016123
0.00016123
0.00016123
0.00016123
0.00016123
0.00016123
0.00016123
0.00016123
0.00016123
0.00016123
0.00016123
0.00016123
0.00016123
0.00016123
0.00016123
0.00016123
0.00016123
0.00016123
0.00016123
0.00016123
0.00016123
0.00016123
0.00016123
0.00016123
0.00016123
0.00016123
0.00016123
0.00016123
0.00016123
0.00016123
0.00016123
0.00016123
0.00016123
0.00016123
0.00016123
0.00016123
0.00016123
0.00016123
0.00016123
0.00016123
0.00016123
0.00016123
0.00016123
0.00016123
0.00016123
0.00016123
0.00016123
0.00016123
0.00016123
0.00016123
0.00016123
0.00016123
0.00016123
0.00016123
0.00016123
0.00016123
0.00016123
0.00016123
0.00016123
0.00016123
0.00016123
0.00016123
0.00016123
0.00016123
0.00016123
0.00016123
0.00016123
0.00016123
0.00016123
0.00016123
0.00016123
0.00016123
0.00016123
0.00016123
0.00016123
0.00016123
0.00016123
0.00016123
0.00016123
0.00016123
0.00016123
0.00016123
0.00016123
0.00016123
0.00016123
0.00016123
0.00016123
0.00016123
0.00016123
0.00016123
0.00016123
0.00016123
0.00016123
0.00016123
0.00016123
0.00016123
0.00016123
0.00016123
0.00016123
0.00016123
0.00016123
0.00016123
0.00016123
0.00016123
0.00016123
0.00016123
0.00016123
0.00016123
0.00016123
0.00016123
0.00016123
0.00016123
0.00016123
0.00016123
0.00016123
0.00016123
0.00016123
0.00016123
0.00016123
0.00016123
0.00016123
0.00016123
0.00016123
0.00016123
0.00016123
0.00016123
0.00016123
0.00016123
0.00016123
0.00016123
0.00016123
0.00016123
0.00016123
0.00016123
0.00016123
0.00016123
0.00016123
0.00016123
0.00016123
0.00016123
0.00016123
0.00016123
0.00016123
0.00016123
0.00016123
0.00016123
0.00016123
0.00016123
0.00016123
0.00016123
0.00016123
0.00016123
0.00016123
0.00016123
0.00016123
0.00016123
0.00016123
0.00016123
0.00016123
0.00016123
0.00016123
0.00016123
0.00016123
0.00016123
0.00016123
0.00016123
0.00016123
0.00016123
0.00016123
0.00016123
0.00016123
0.00016123
0.00016123
0.00016123
0.00016123
0.00016123
0.00016123
0.00016123
0.00016123
0.00016123
0.00016123
0.00016123
0.00016123
0.00016123
0.00016123
0.00016123
0.00016123
0.00016123
0.00016123
0.00016123
0.00016123
0.00016123
0.00016123
0.00016123
0.00016123
0.00016123
0.00016123
0.00016123
0.00016123
0.00016123
0.00016123
0.00016123
0.00016123
0.00016123
0.00016123
0.00016123
0.00016123
0.00016123
0.00016123
0.00016123
0.00016123
0.00016123
0.00016123
0.00016123
0.00016123
0.00016123
0.00016123
0.00016123
0.00016123
0.00016123
0.00016123
0.00016123
0.00016123
0.00016123
0.00016123
0.00016123
0.00016123
0.00016123
0.00016123
0.00016123
0.00016123
0.00016123
0.00016123
0.00016123
0.00016123
0.00016123
0.00016123
0.00016123
0.00016123
0.00016123
0.00016123
0.00016123
0.00016123
0.00016123
0.00016123
0.00016123
0.00016123
0.00016123
0.00016123
0.00016123
0.00016123
0.00016123
0.00016123
0.00016123
0.00016123
0.00016123
0.00016123
0.00016123
0.00016123
0.00016123
0.00016123
0.00016123
0.00016123
0.00016123
0.00016123
0.00016123
0.00016123
0.00016123
0.00016123
0.00016123
0.00016123
0.00016123
0.00016123
0.00016123
0.00016123
0.00016123
0.00016123
0.00016123
0.00016123
0.00016123
0.00016123
0.00016123
0.00016123
0.00016123
0.00016123
0.00016123
0.00016123
0.00016123
0.00016123
0.00016123
0.00016123
0.00016123
0.00016123
0.00016123
0.00016123
0.00016123
0.00016123
0.00016123
0.00016123
0.00016123
0.00016123
0.00016123
0.00016123
0.00016123
0.00016123
0.00016123
0.00016123
0.00016123
0.00016123
0.00016123
0.00016123
0.00016123
0.00016123
0.00016123
0.00016123
0.00016123
0.00016123
0.00016123
0.00016123
0.00016123
0.00016123
0.00016123
0.00016123
0.00016123
0.00016123
0.00016123
0.00016123
0.00016123
0.00016123
0.00016123
0.00016123
0.00016123
0.00016123
0.00016123
0.00016123
0.00016123
0.00016123
0.00016123
0.00016123
0.00016123
0.00016123
0.00016123
0.00016123
0.00016123
0.00016123
0.00016123
0.00016123
0.00016123
0.00016123
0.00016123
0.00016123
0.00016123
0.00016123
0.00016123
0.00016123
0.00016123
0.00016123
0.00016123
0.00016123
0.00016123
0.00016123
0.00016123
0.00016123
0.00016123
0.00016123
0.00016123
0.00016123
0.00016123
0.00016123
0.00016123
0.00016123
0.00016123
0.00016123
0.00016123
0.00016123
0.00016123
0.00016123
0.00016123
0.00016123
0.00016123
0.00016123
0.00016123
0.00016123
0.00016123
0.00016123
0.00016123
0.00016123
0.00016123
0.00016123
0.00016123
0.00016123
0.00016123
0.000161231
0.000161231
0.000161231
0.00016123
0.00016123
0.00016123
0.00016123
0.00016123
0.00016123
0.00016123
0.000161231
0.000161231
0.000161231
0.000161231
0.00016123
0.00016123
0.00016123
0.00016123
0.00016123
0.00016123
0.000161231
0.000161231
0.000161231
0.000161231
0.000161231
0.00016123
0.00016123
0.00016123
0.000161229
0.000161229
0.000161232
0.000161232
0.000161231
0.000161231
0.000161231
0.00016123
0.00016123
0.000161229
0.000161228
0.000161227
0.000161234
0.000161233
0.000161232
0.000161232
0.000161231
0.00016123
0.000161229
0.000161227
0.000161225
0.000161223
0.000161238
0.000161237
0.000161235
0.000161233
0.000161232
0.00016123
0.000161228
0.000161224
0.000161219
0.000161215
0.000161247
0.000161244
0.000161239
0.000161236
0.000161233
0.00016123
0.000161226
0.000161218
0.000161207
0.000161199
0.000161266
0.000161259
0.000161249
0.000161241
0.000161236
0.000161231
0.000161222
0.000161206
0.000161184
0.000161168
0.000161302
0.000161287
0.000161267
0.000161251
0.000161241
0.000161232
0.000161215
0.000161185
0.000161143
0.000161109
0.000161371
0.000161341
0.000161301
0.00016127
0.000161251
0.000161235
0.000161205
0.000161149
0.00016107
0.000161005
0.000161496
0.000161437
0.000161361
0.000161304
0.000161269
0.000161241
0.000161191
0.000161091
0.000160948
0.000160827
0.000161716
0.000161603
0.000161463
0.000161359
0.0001613
0.000161255
0.000161173
0.000161006
0.000160753
0.00016053
0.000162087
0.000161877
0.000161626
0.000161447
0.000161349
0.00016128
0.000161156
0.000160886
0.000160455
0.000160051
0.000162696
0.000162313
0.000161877
0.000161578
0.000161424
0.000161326
0.000161146
0.000160732
0.000160022
0.0001593
0.000163661
0.000162975
0.000162242
0.000161764
0.000161531
0.000161401
0.000161163
0.000160563
0.000159431
0.000158139
0.000165152
0.000163933
0.000162741
0.000162009
0.000161676
0.000161517
0.000161231
0.00016042
0.000158689
0.000156359
0.000167401
0.000165242
0.000163374
0.000162307
0.000161856
0.000161685
0.000161389
0.000160396
0.000157887
0.000153614
0.000170737
0.000166897
0.000164102
0.000162635
0.000162063
0.000161909
0.000161678
0.000160642
0.000157328
0.000149274
0.000175653
0.000168738
0.000164825
0.000162951
0.000162276
0.000162179
0.000162126
0.000161362
0.000157812
0.00014209
0.000178684
0.000171252
0.000166055
0.000163578
0.000162619
0.000162472
0.000162684
0.000162904
0.00016278
0.000160534
0.000175768
0.000171978
0.000167359
0.000164589
0.000163162
0.000162617
0.000162612
0.000162881
0.000163187
0.000162582
0.000169814
0.000169768
0.000167073
0.000165002
0.000163614
0.000162819
0.000162485
0.000162474
0.000162645
0.000162627
0.000162167
0.00016508
0.000164711
0.000164039
0.00016335
0.000162788
0.000162411
0.000162225
0.000162199
0.000162228
0.000154288
0.000158927
0.00016057
0.000161436
0.00016182
0.000161932
0.000161918
0.00016187
0.000161841
0.000161845
0.000147635
0.000152818
0.000155781
0.000157837
0.000159222
0.000160122
0.000160687
0.000161031
0.000161239
0.000161371
0.00014347
0.000148435
0.000151992
0.000154683
0.000156683
0.000158144
0.00015919
0.000159924
0.00016043
0.000160775
0.000142628
0.0001471
0.000150679
0.000153465
0.000155608
0.000157236
0.000158453
0.000159348
0.000159997
0.000160462
0.000145437
0.000149303
0.000152378
0.000154751
0.000156573
0.000157956
0.000158994
0.000159763
0.000160327
0.000160738
0.000152108
0.00015444
0.00015619
0.000157592
0.000158693
0.000159539
0.000160181
0.000160667
0.000161051
0.000161416
0.000158245
0.000158105
0.000158595
0.000159221
0.000159805
0.000160291
0.000160672
0.000160961
0.000161176
0.000161332
0.000159425
0.00015947
0.000159695
0.000160011
0.000160337
0.000160628
0.000160866
0.000161051
0.000161188
0.000161281
0.000160205
0.000160252
0.000160368
0.00016053
0.000160706
0.00016087
0.00016101
0.00016112
0.000161202
0.000161257
0.000160677
0.000160706
0.000160766
0.000160849
0.000160941
0.000161029
0.000161106
0.000161168
0.000161214
0.000161244
0.000160947
0.000160963
0.000160993
0.000161034
0.00016108
0.000161125
0.000161165
0.000161197
0.000161222
0.000161238
0.000161093
0.000161101
0.000161115
0.000161135
0.000161157
0.000161179
0.000161198
0.000161214
0.000161227
0.000161234
0.000161168
0.000161171
0.000161178
0.000161187
0.000161197
0.000161207
0.000161216
0.000161224
0.000161229
0.000161232
0.000161204
0.000161205
0.000161208
0.000161212
0.000161216
0.000161221
0.000161225
0.000161228
0.00016123
0.000161232
0.00016122
0.000161221
0.000161222
0.000161223
0.000161225
0.000161227
0.000161228
0.00016123
0.000161231
0.000161231
0.000161227
0.000161227
0.000161228
0.000161228
0.000161229
0.000161229
0.00016123
0.00016123
0.000161231
0.000161231
0.00016123
0.00016123
0.00016123
0.00016123
0.00016123
0.00016123
0.000161231
0.000161231
0.000161231
0.000161231
0.00016123
0.00016123
0.00016123
0.000161231
0.000161231
0.000161231
0.000161231
0.000161231
0.000161231
0.000161231
0.000161231
0.000161231
0.000161231
0.000161231
0.000161231
0.000161231
0.000161231
0.000161231
0.000161231
0.000161231
0.000161231
0.000161231
0.000161231
0.000161231
0.000161231
0.000161231
0.000161231
0.000161231
0.000161231
0.000161231
0.000161231
0.000161231
0.000161231
0.000161231
0.000161231
0.000161231
0.000161231
0.000161231
0.000161231
0.000161231
0.000161231
0.000161231
0.000161231
0.000161231
0.000161231
0.000161231
0.000161231
0.000161231
0.000161231
0.000161231
0.000161231
0.000161231
0.000161231
0.000161231
0.000161231
0.000161231
0.000161231
0.000161231
0.000161231
0.000161231
0.000161231
0.000161231
0.000161231
0.000161231
0.000161231
0.000161231
0.000161231
0.000161231
0.000161231
0.000161231
0.000161231
0.000161231
0.000161231
0.000161231
0.000161231
0.000161231
0.000161231
0.000161231
0.000161231
0.000161231
0.000161231
0.000161231
0.000161231
0.000161231
0.000161231
0.000161231
0.000161231
0.000161231
0.000161231
0.000161231
0.000161231
0.000161231
0.000161231
0.000161231
0.000161231
0.000161231
0.000161231
0.000161231
0.000161231
0.000161231
0.000161231
0.000161231
0.000161231
0.000161231
0.000161231
0.000161231
0.000161231
0.000161231
0.000161231
0.000161231
0.000161231
0.000161231
0.000161231
0.000161231
0.000161231
0.000161231
0.000161231
0.000161231
0.000161231
0.000161231
0.000161231
0.000161231
0.000161231
0.000161231
0.000161231
0.000161231
0.000161231
0.000161231
0.000161231
0.000161231
0.000161231
0.000161231
0.000161231
0.000161231
0.000161231
0.000161231
0.000161231
0.000161231
0.000161231
0.000161231
0.000161231
0.000161231
0.000161231
0.000161231
0.000161231
0.000161231
0.000161231
0.000161231
0.000161231
0.000161231
0.000161231
0.000161231
0.000161231
0.000161231
0.000161231
0.000161231
0.000161231
0.000161231
0.000161231
0.000161231
0.000161231
0.000161231
0.000161231
0.000161231
0.000161231
0.000161231
0.000161231
0.000161231
0.000161231
0.000161231
0.000161231
0.000161231
0.000161231
0.000161231
0.000161231
0.000161231
0.000161231
0.000161231
0.000161231
0.000161231
0.000161231
0.000161231
0.000161231
0.000161231
0.000161231
0.000161231
0.000161231
0.000161231
0.000161231
0.000161231
0.000161231
0.000161231
0.000161231
0.000161231
0.000161231
0.000161231
0.000161231
0.000161231
0.000161231
0.000161231
0.000161231
0.000161231
0.000161231
0.000161231
0.000161231
0.000161231
0.000161231
0.000161231
0.000161231
0.000161231
0.000161231
0.000161231
0.000161231
0.000161231
0.000161231
0.000161231
0.000161231
0.000161231
0.000161231
0.000161231
0.000161231
0.000161231
0.000161231
0.000161231
0.000161231
0.000161231
0.000161231
0.000161231
0.000161231
0.000161231
0.000161231
0.000161231
0.000161231
0.000161231
0.000161231
0.000161231
0.000161231
0.000161231
0.000161231
0.000161231
0.000161231
0.000161231
0.000161231
0.000161231
0.000161231
0.000161231
0.000161231
0.000161231
0.000161231
0.000161231
0.000161231
0.000161231
0.000161231
0.000161231
0.000161231
0.000161231
0.000161231
0.000161231
0.000161231
0.000161231
0.000161231
0.000161231
0.000161231
0.000161231
0.000161231
0.000161231
0.000161231
0.000161231
0.000161231
0.000161231
0.000161231
0.000161231
0.000161231
0.000161231
0.000161231
0.000161231
0.000161231
0.000161231
0.000161231
0.000161231
0.000161231
0.000161231
0.000161231
0.000161231
0.000161231
0.000161231
0.000161231
0.000161231
0.000161231
0.000161231
0.000161231
0.000161231
0.000161231
0.000161231
0.000161231
0.000161231
0.000161231
0.000161231
0.000161231
0.000161231
0.000161231
0.000161231
0.000161231
0.000161231
0.000161231
0.000161231
0.000161231
0.000161231
0.000161231
0.000161231
0.000161231
0.000161231
0.000161231
0.000161231
0.000161231
0.000161231
0.000161231
0.000161231
0.000161231
0.000161231
0.000161231
0.000161231
0.000161231
0.000161231
0.000161231
0.000161231
0.000161231
0.000161231
0.000161231
0.000161231
0.000161231
0.000161231
0.000161231
0.000161231
0.000161231
0.000161231
0.000161231
0.000161231
0.000161231
0.000161231
0.000161231
0.000161231
0.000161231
0.000161231
0.000161231
0.000161231
0.000161231
0.000161231
0.000161231
0.000161231
0.000161231
0.000161231
0.000161231
0.000161231
0.000161231
0.000161231
0.000161231
0.000161231
0.000161231
0.000161231
0.000161231
0.000161231
0.000161231
0.000161231
0.000161231
0.000161231
0.000161231
0.000161231
0.000161231
0.000161231
0.000161231
0.000161231
0.000161231
0.000161231
0.000161231
0.000161231
0.000161231
0.000161231
0.000161231
0.000161231
0.000161231
0.000161231
0.000161231
0.000161231
0.000161231
0.000161231
0.000161231
0.000161231
0.000161231
0.000161231
0.000161231
0.000161231
0.000161231
0.000161231
0.000161231
0.000161231
0.000161231
0.000161231
0.000161231
0.000161231
0.000161231
0.000161231
0.000161231
0.000161231
0.000161231
0.000161231
0.000161231
0.000161231
0.000161231
0.000161231
0.000161231
0.000161231
0.000161231
0.000161231
0.000161231
0.000161231
0.000161231
0.000161231
0.000161231
0.000161231
0.000161231
0.000161231
0.000161231
0.000161231
0.000161231
0.000161231
0.000161231
0.000161231
0.000161231
0.000161231
0.000161231
0.000161231
0.000161231
0.000161231
0.000161231
0.000161231
0.000161231
0.000161231
0.000161231
0.000161231
0.000161231
0.000161231
0.000161231
0.000161231
0.000161231
0.000161231
0.000161231
0.000161231
0.000161231
0.000161231
0.000161231
0.000161231
0.000161231
0.000161231
0.000161231
0.000161231
0.000161231
0.000161231
0.000161231
0.000161231
0.000161231
0.000161231
0.000161231
0.000161231
0.000161231
0.000161231
0.000161231
0.000161231
0.000161231
0.000161231
0.000161231
0.000161231
0.000161231
0.000161231
0.000161231
0.000161231
0.000161231
0.000161231
0.000161231
0.000161231
0.000161231
0.000161231
0.000161231
0.000161231
0.000161231
0.000161231
0.000161231
0.000161231
0.000161231
0.000161231
0.000161231
0.000161231
0.000161231
0.000161231
0.000161231
0.000161231
0.000161231
0.000161231
0.000161231
0.000161231
0.000161231
0.000161231
0.000161231
0.000161231
0.000161231
0.000161231
0.000161231
0.000161231
0.000161231
0.000161231
0.000161231
0.000161231
0.000161231
0.000161231
0.000161231
0.000161231
0.000161231
0.000161231
0.000161231
0.000161231
0.000161231
0.000161231
0.000161231
0.000161231
0.000161231
0.000161231
0.000161231
0.000161231
0.000161231
0.000161231
0.000161231
0.000161231
0.000161231
0.000161231
0.000161231
0.000161231
0.000161231
0.000161231
0.000161231
0.000161231
0.000161231
0.000161231
0.000161231
0.000161231
0.000161231
0.000161231
0.000161231
0.000161231
0.000161231
0.000161231
0.000161231
0.000161231
0.000161231
0.000161231
0.000161231
0.000161231
0.000161231
0.000161231
0.000161231
0.000161231
0.000161231
0.000161231
0.000161231
0.000161231
0.000161231
0.000161231
0.000161231
0.000161231
0.000161231
0.000161231
0.000161231
0.000161231
0.000161231
0.000161231
0.000161231
0.000161231
0.000161231
0.000161231
0.000161231
0.000161231
0.00016123
0.00016123
0.00016123
0.00016123
0.00016123
0.00016123
0.00016123
0.00016123
0.00016123
0.00016123
0.000161573
0.000161633
0.000161705
0.000161773
0.000161821
0.000161841
0.000161832
0.000161797
0.00016173
0.00016165
0.000161476
0.00016151
0.000161539
0.000161545
0.000161515
0.000161447
0.000161348
0.000161224
0.000161082
0.000160936
0.000161486
0.000161502
0.000161498
0.000161461
0.000161387
0.000161281
0.000161154
0.000161012
0.000160862
0.000160708
0.000161538
0.000161555
0.000161535
0.000161477
0.000161388
0.000161281
0.000161169
0.000161063
0.000160971
0.000160906
0.000161642
0.000161682
0.000161652
0.000161573
0.00016147
0.000161367
0.000161283
0.000161234
0.000161237
0.000161316
0.00016182
0.000161927
0.000161892
0.000161775
0.000161634
0.000161509
0.000161429
0.000161413
0.000161486
0.000161672
0.0001621
0.000162362
0.000162331
0.000162146
0.000161921
0.000161724
0.000161596
0.000161562
0.000161657
0.000161923
0.000162521
0.000163095
0.00016308
0.000162784
0.00016241
0.00016206
0.000161776
0.000161588
0.00016156
0.000161844
0.000163147
0.000164283
0.000164285
0.000163817
0.000163214
0.000162591
0.000161941
0.000161217
0.000160469
0.000160115
0.000163789
0.000166163
0.000166383
0.000165889
0.000165173
0.00016433
0.000163204
0.000161409
0.000158258
0.000152531
0.000161422
0.000161422
0.00016143
0.000161452
0.000161493
0.000161547
0.00016159
0.000161558
0.000161267
0.000160203
0.000161333
0.00016135
0.000161354
0.000161357
0.00016136
0.000161357
0.000161328
0.000161239
0.000161044
0.000160748
0.000161287
0.000161298
0.000161298
0.000161291
0.000161278
0.000161255
0.000161213
0.000161143
0.000161041
0.000160942
0.000161261
0.000161266
0.000161262
0.000161252
0.000161236
0.000161212
0.000161177
0.000161131
0.000161079
0.00016104
0.000161246
0.000161247
0.000161243
0.000161233
0.00016122
0.000161201
0.000161176
0.000161148
0.000161121
0.000161103
0.000161238
0.000161237
0.000161233
0.000161226
0.000161216
0.000161203
0.000161188
0.000161172
0.000161157
0.000161148
0.000161234
0.000161233
0.00016123
0.000161225
0.000161219
0.000161211
0.000161201
0.000161192
0.000161184
0.00016118
0.000161232
0.000161231
0.000161229
0.000161226
0.000161222
0.000161218
0.000161212
0.000161207
0.000161203
0.000161201
0.000161231
0.000161231
0.000161229
0.000161228
0.000161226
0.000161223
0.00016122
0.000161218
0.000161215
0.000161214
0.000161231
0.00016123
0.00016123
0.000161229
0.000161228
0.000161226
0.000161225
0.000161224
0.000161223
0.000161222
0.000161231
0.000161231
0.00016123
0.00016123
0.000161229
0.000161229
0.000161228
0.000161227
0.000161227
0.000161226
0.000161231
0.000161231
0.00016123
0.00016123
0.00016123
0.00016123
0.000161229
0.000161229
0.000161229
0.000161228
0.000161231
0.000161231
0.000161231
0.00016123
0.00016123
0.00016123
0.00016123
0.00016123
0.00016123
0.00016123
0.000161231
0.000161231
0.000161231
0.000161231
0.000161231
0.000161231
0.00016123
0.00016123
0.00016123
0.00016123
0.000161231
0.000161231
0.000161231
0.000161231
0.000161231
0.000161231
0.000161231
0.000161231
0.00016123
0.00016123
0.000161231
0.000161231
0.000161231
0.000161231
0.000161231
0.000161231
0.000161231
0.000161231
0.000161231
0.00016123
0.000161231
0.000161231
0.000161231
0.000161231
0.000161231
0.000161231
0.000161231
0.000161231
0.000161231
0.00016123
0.000161231
0.000161231
0.000161231
0.000161231
0.000161231
0.000161231
0.000161231
0.000161231
0.000161231
0.00016123
0.000161231
0.000161231
0.000161231
0.000161231
0.000161231
0.000161231
0.000161231
0.000161231
0.000161231
0.00016123
0.000161231
0.000161231
0.000161231
0.000161231
0.000161231
0.000161231
0.000161231
0.000161231
0.000161231
0.00016123
0.000161231
0.000161231
0.000161231
0.000161231
0.000161231
0.000161231
0.000161231
0.000161231
0.000161231
0.00016123
0.000161231
0.000161231
0.000161231
0.000161231
0.000161231
0.000161231
0.000161231
0.000161231
0.000161231
0.00016123
0.000161231
0.000161231
0.000161231
0.000161231
0.000161231
0.000161231
0.000161231
0.000161231
0.000161231
0.00016123
0.000161231
0.000161231
0.000161231
0.000161231
0.000161231
0.000161231
0.000161231
0.000161231
0.000161231
0.00016123
0.000161231
0.000161231
0.000161231
0.000161231
0.000161231
0.000161231
0.000161231
0.000161231
0.000161231
0.00016123
0.000161231
0.000161231
0.000161231
0.000161231
0.000161231
0.000161231
0.000161231
0.000161231
0.000161231
0.00016123
0.000161231
0.000161231
0.000161231
0.000161231
0.000161231
0.000161231
0.000161231
0.000161231
0.000161231
0.00016123
0.000161231
0.000161231
0.000161231
0.000161231
0.000161231
0.000161231
0.000161231
0.000161231
0.000161231
0.00016123
0.000161231
0.000161231
0.000161231
0.000161231
0.000161231
0.000161231
0.000161231
0.000161231
0.000161231
0.00016123
0.000161231
0.000161231
0.000161231
0.000161231
0.000161231
0.000161231
0.000161231
0.000161231
0.000161231
0.00016123
0.000161231
0.000161231
0.000161231
0.000161231
0.000161231
0.000161231
0.000161231
0.000161231
0.000161231
0.00016123
0.000161231
0.000161231
0.000161231
0.000161231
0.000161231
0.000161231
0.000161231
0.000161231
0.000161231
0.00016123
0.000161231
0.000161231
0.000161231
0.000161231
0.000161231
0.000161231
0.000161231
0.000161231
0.000161231
0.00016123
0.000161231
0.000161231
0.000161231
0.000161231
0.000161231
0.000161231
0.000161231
0.000161231
0.000161231
0.00016123
0.000161231
0.000161231
0.000161231
0.000161231
0.000161231
0.000161231
0.000161231
0.000161231
0.000161231
0.00016123
0.000161231
0.000161231
0.000161231
0.000161231
0.000161231
0.000161231
0.000161231
0.000161231
0.000161231
0.00016123
0.000161231
0.000161231
0.000161231
0.000161231
0.000161231
0.000161231
0.000161231
0.000161231
0.000161231
0.00016123
0.000161231
0.000161231
0.000161231
0.000161231
0.000161231
0.000161231
0.000161231
0.000161231
0.000161231
0.00016123
0.000161231
0.000161231
0.000161231
0.000161231
0.000161231
0.000161231
0.000161231
0.000161231
0.000161231
0.00016123
0.000161231
0.000161231
0.000161231
0.000161231
0.000161231
0.000161231
0.000161231
0.000161231
0.000161231
0.00016123
0.000161231
0.000161231
0.000161231
0.000161231
0.000161231
0.000161231
0.000161231
0.000161231
0.000161231
0.00016123
0.000161231
0.000161231
0.000161231
0.000161231
0.000161231
0.000161231
0.000161231
0.000161231
0.000161231
0.00016123
0.000161231
0.000161231
0.000161231
0.000161231
0.000161231
0.000161231
0.000161231
0.000161231
0.000161231
0.00016123
0.000161231
0.000161231
0.000161231
0.000161231
0.000161231
0.000161231
0.000161231
0.000161231
0.000161231
0.00016123
0.000161231
0.000161231
0.000161231
0.000161231
0.000161231
0.000161231
0.000161231
0.000161231
0.000161231
0.00016123
0.000161231
0.000161231
0.000161231
0.000161231
0.000161231
0.000161231
0.000161231
0.000161231
0.000161231
0.00016123
0.000161231
0.000161231
0.000161231
0.000161231
0.000161231
0.000161231
0.000161231
0.000161231
0.000161231
0.00016123
0.000161231
0.000161231
0.000161231
0.000161231
0.000161231
0.000161231
0.000161231
0.000161231
0.000161231
0.00016123
0.000161231
0.000161231
0.000161231
0.000161231
0.000161231
0.000161231
0.000161231
0.000161231
0.000161231
0.00016123
0.000161231
0.000161231
0.000161231
0.000161231
0.000161231
0.000161231
0.000161231
0.000161231
0.000161231
0.00016123
0.000161231
0.000161231
0.000161231
0.000161231
0.000161231
0.000161231
0.000161231
0.000161231
0.000161231
0.00016123
0.000161231
0.000161231
0.000161231
0.000161231
0.000161231
0.000161231
0.000161231
0.000161231
0.000161231
0.00016123
0.000161231
0.000161231
0.000161231
0.000161231
0.000161231
0.000161231
0.000161231
0.000161231
0.000161231
0.00016123
0.000161231
0.000161231
0.000161231
0.000161231
0.000161231
0.000161231
0.000161231
0.000161231
0.000161231
0.00016123
0.000161231
0.000161231
0.000161231
0.000161231
0.000161231
0.000161231
0.000161231
0.000161231
0.000161231
0.00016123
0.000161231
0.000161231
0.000161231
0.000161231
0.000161231
0.000161231
0.000161231
0.000161231
0.000161231
0.00016123
0.000161231
0.000161231
0.000161231
0.000161231
0.000161231
0.000161231
0.000161231
0.000161231
0.000161231
0.00016123
0.000161231
0.000161231
0.000161231
0.000161231
0.000161231
0.000161231
0.000161231
0.000161231
0.000161231
0.00016123
0.000161231
0.000161231
0.000161231
0.000161231
0.000161231
0.000161231
0.000161231
0.000161231
0.000161231
0.00016123
0.000161231
0.000161231
0.000161231
0.000161231
0.000161231
0.000161231
0.000161231
0.000161231
0.000161231
0.00016123
0.000161231
0.000161231
0.000161231
0.000161231
0.000161231
0.000161231
0.000161231
0.000161231
0.000161231
0.00016123
0.000161231
0.000161231
0.000161231
0.000161231
0.000161231
0.000161231
0.000161231
0.000161231
0.000161231
0.00016123
0.000161231
0.000161231
0.000161231
0.000161231
0.000161231
0.000161231
0.000161231
0.000161231
0.000161231
0.00016123
0.000161231
0.000161231
0.000161231
0.000161231
0.000161231
0.000161231
0.000161231
0.000161231
0.000161231
0.00016123
0.000161231
0.000161231
0.000161231
0.000161231
0.000161231
0.000161231
0.000161231
0.000161231
0.000161231
0.00016123
0.000161231
0.000161231
0.000161231
0.000161231
0.000161231
0.000161231
0.000161231
0.000161231
0.000161231
0.00016123
0.000161231
0.000161231
0.000161231
0.000161231
0.000161231
0.000161231
0.000161231
0.000161231
0.000161231
0.00016123
0.000161231
0.000161231
0.000161231
0.000161231
0.000161231
0.000161231
0.000161231
0.000161231
0.000161231
0.00016123
0.000161231
0.000161231
0.000161231
0.000161231
0.000161231
0.000161231
0.000161231
0.000161231
0.00016123
0.00016123
0.00016123
0.00016123
0.00016123
0.00016123
0.00016123
0.00016123
0.00016123
0.00016123
0.00016123
0.00016123
)
;

boundaryField
{
    defaultFaces
    {
        type            empty;
    }
}


// ************************************************************************* //
