/*--------------------------------*- C++ -*----------------------------------*\
  =========                 |
  \\      /  F ield         | OpenFOAM: The Open Source CFD Toolbox
   \\    /   O peration     | Website:  https://openfoam.org
    \\  /    A nd           | Version:  11
     \\/     M anipulation  |
\*---------------------------------------------------------------------------*/
FoamFile
{
    format      ascii;
    class       volScalarField;
    location    "9.5";
    object      nut;
}
// * * * * * * * * * * * * * * * * * * * * * * * * * * * * * * * * * * * * * //

dimensions      [0 2 -1 0 0 0 0];

internalField   nonuniform List<scalar> 
2200
(
0.000134269
0.000134269
0.000134269
0.000134269
0.000134269
0.000134269
0.000134269
0.000134269
0.000134269
0.000134269
0.000134269
0.000134269
0.000134269
0.000134269
0.000134269
0.000134269
0.000134269
0.000134269
0.000134269
0.000134269
0.000134269
0.000134269
0.000134269
0.000134269
0.000134269
0.000134269
0.000134269
0.000134269
0.000134269
0.000134269
0.000134269
0.000134269
0.000134269
0.000134269
0.000134269
0.000134269
0.000134269
0.000134269
0.000134269
0.000134269
0.000134269
0.000134269
0.000134269
0.000134269
0.000134269
0.000134269
0.000134269
0.000134269
0.000134269
0.000134269
0.000134269
0.000134269
0.000134269
0.000134269
0.000134269
0.000134269
0.000134269
0.000134269
0.000134269
0.000134269
0.000134269
0.000134269
0.000134269
0.000134269
0.000134269
0.000134269
0.000134269
0.000134269
0.000134269
0.000134269
0.000134269
0.000134269
0.000134269
0.000134269
0.000134269
0.000134269
0.000134269
0.000134269
0.000134269
0.000134269
0.000134269
0.000134269
0.000134269
0.000134269
0.000134269
0.000134269
0.000134269
0.000134269
0.000134269
0.000134269
0.000134269
0.000134269
0.000134269
0.000134269
0.000134269
0.000134269
0.000134269
0.000134269
0.000134269
0.000134269
0.000134269
0.000134269
0.000134269
0.000134269
0.000134269
0.000134269
0.000134269
0.000134269
0.000134269
0.000134269
0.000134269
0.000134269
0.000134269
0.000134269
0.000134269
0.000134269
0.000134269
0.000134269
0.000134269
0.000134269
0.000134269
0.000134269
0.000134269
0.000134269
0.000134269
0.000134269
0.000134269
0.000134269
0.000134269
0.000134269
0.000134269
0.000134269
0.000134269
0.000134269
0.000134269
0.000134269
0.000134269
0.000134269
0.000134269
0.000134269
0.000134269
0.000134269
0.000134269
0.000134269
0.000134269
0.000134269
0.000134269
0.000134269
0.000134269
0.000134269
0.000134269
0.000134269
0.000134269
0.000134269
0.000134269
0.000134269
0.000134269
0.000134269
0.000134269
0.000134269
0.000134269
0.000134269
0.000134269
0.000134269
0.000134269
0.000134269
0.000134269
0.000134269
0.000134269
0.000134269
0.000134269
0.000134269
0.000134269
0.000134269
0.000134269
0.000134269
0.000134269
0.000134269
0.000134269
0.000134269
0.000134269
0.000134269
0.000134269
0.000134269
0.000134269
0.000134269
0.000134269
0.000134269
0.000134269
0.000134269
0.000134269
0.000134269
0.000134269
0.000134269
0.000134269
0.000134269
0.000134269
0.000134269
0.000134269
0.000134269
0.000134269
0.000134269
0.000134269
0.000134269
0.000134269
0.000134269
0.000134269
0.000134269
0.000134269
0.000134269
0.000134269
0.000134269
0.000134269
0.000134269
0.000134269
0.000134269
0.000134269
0.000134269
0.000134269
0.000134269
0.000134269
0.000134269
0.000134269
0.000134269
0.000134269
0.000134269
0.000134269
0.000134269
0.000134269
0.000134269
0.000134269
0.000134269
0.000134269
0.000134269
0.000134269
0.000134269
0.000134269
0.000134269
0.000134269
0.000134269
0.000134269
0.000134269
0.000134269
0.000134269
0.000134269
0.000134269
0.000134269
0.000134269
0.000134269
0.000134269
0.000134269
0.000134269
0.000134269
0.000134269
0.000134269
0.000134269
0.000134269
0.000134269
0.000134269
0.000134269
0.000134269
0.000134269
0.000134269
0.000134269
0.000134269
0.000134269
0.000134269
0.000134269
0.000134269
0.000134269
0.000134269
0.000134269
0.000134269
0.000134269
0.000134269
0.000134269
0.000134269
0.000134269
0.000134269
0.000134269
0.000134269
0.000134269
0.000134269
0.000134269
0.000134269
0.000134269
0.000134269
0.000134269
0.000134269
0.000134269
0.000134269
0.000134269
0.000134269
0.000134269
0.000134269
0.000134269
0.000134269
0.000134269
0.000134269
0.000134269
0.000134269
0.000134269
0.000134269
0.000134269
0.000134269
0.000134269
0.000134269
0.000134269
0.000134269
0.000134269
0.000134269
0.000134269
0.000134269
0.000134269
0.000134269
0.000134269
0.000134269
0.000134269
0.000134269
0.000134269
0.000134269
0.000134269
0.000134269
0.000134269
0.000134269
0.000134269
0.000134269
0.000134269
0.000134269
0.000134269
0.000134269
0.000134269
0.000134269
0.000134269
0.000134269
0.000134269
0.000134269
0.000134269
0.000134269
0.000134269
0.000134269
0.000134269
0.000134269
0.000134269
0.000134269
0.000134269
0.000134269
0.000134269
0.000134269
0.000134269
0.000134269
0.000134269
0.000134269
0.000134269
0.000134269
0.000134269
0.000134269
0.000134269
0.000134269
0.000134269
0.000134269
0.000134269
0.000134269
0.000134269
0.000134269
0.000134269
0.000134269
0.000134269
0.000134269
0.000134269
0.000134269
0.000134269
0.000134269
0.000134269
0.000134269
0.000134269
0.000134269
0.000134269
0.000134269
0.000134269
0.000134269
0.000134269
0.000134269
0.000134269
0.000134269
0.000134269
0.000134269
0.000134269
0.000134269
0.000134269
0.000134269
0.000134269
0.000134269
0.000134269
0.000134269
0.000134269
0.000134269
0.000134269
0.000134269
0.000134269
0.000134269
0.000134269
0.000134269
0.000134269
0.000134269
0.000134269
0.000134269
0.000134269
0.000134269
0.000134269
0.000134269
0.000134269
0.000134269
0.000134269
0.000134269
0.000134269
0.000134269
0.000134269
0.000134269
0.000134268
0.000134269
0.000134269
0.000134269
0.000134269
0.000134269
0.000134269
0.000134269
0.000134269
0.000134268
0.000134268
0.00013427
0.000134269
0.000134269
0.000134269
0.000134269
0.000134269
0.000134269
0.000134268
0.000134268
0.000134267
0.000134271
0.00013427
0.00013427
0.000134269
0.000134269
0.000134269
0.000134268
0.000134267
0.000134266
0.000134265
0.000134273
0.000134272
0.000134271
0.00013427
0.000134269
0.000134269
0.000134267
0.000134265
0.000134263
0.000134261
0.000134278
0.000134276
0.000134274
0.000134272
0.00013427
0.000134269
0.000134266
0.000134262
0.000134256
0.000134252
0.000134288
0.000134284
0.000134279
0.000134275
0.000134272
0.000134269
0.000134263
0.000134254
0.000134243
0.000134234
0.000134308
0.0001343
0.00013429
0.000134281
0.000134275
0.000134269
0.000134259
0.000134241
0.000134219
0.000134201
0.000134347
0.000134331
0.00013431
0.000134292
0.000134281
0.00013427
0.000134252
0.000134219
0.000134176
0.000134142
0.000134418
0.000134387
0.000134346
0.000134313
0.000134292
0.000134273
0.00013424
0.000134182
0.000134102
0.000134039
0.000134545
0.000134486
0.000134409
0.000134348
0.000134311
0.000134279
0.000134225
0.000134123
0.000133983
0.000133867
0.000134762
0.000134652
0.000134513
0.000134406
0.000134342
0.000134291
0.000134205
0.000134038
0.000133796
0.000133589
0.000135119
0.00013492
0.000134676
0.000134496
0.000134392
0.000134315
0.000134184
0.000133921
0.000133519
0.000133154
0.000135691
0.000135337
0.000134922
0.000134627
0.000134465
0.000134355
0.000134169
0.000133774
0.000133127
0.000132487
0.000136576
0.000135954
0.000135273
0.00013481
0.000134569
0.000134421
0.000134175
0.000133612
0.000132602
0.000131482
0.000137911
0.000136829
0.000135741
0.000135046
0.000134706
0.000134523
0.000134225
0.000133475
0.000131957
0.000129969
0.000139882
0.000138
0.000136325
0.000135329
0.000134874
0.000134667
0.00013435
0.00013344
0.000131273
0.000127669
0.000142751
0.000139454
0.000136985
0.000135636
0.000135063
0.000134856
0.000134585
0.000133637
0.000130804
0.000124063
0.000146917
0.000141045
0.000137631
0.000135926
0.000135254
0.000135084
0.000134954
0.000134235
0.000131219
0.000118116
0.000149478
0.00014319
0.000138711
0.0001365
0.000135581
0.00013536
0.000135451
0.000135558
0.000135395
0.000133489
0.000146924
0.00014375
0.000139819
0.000137403
0.000136108
0.000135561
0.000135475
0.000135623
0.000135809
0.000135248
0.000141705
0.000141728
0.000139488
0.000137726
0.000136513
0.000135787
0.000135446
0.000135374
0.000135455
0.00013538
0.000135024
0.000137549
0.000137311
0.000136788
0.000136222
0.000135741
0.000135403
0.000135216
0.000135156
0.000135137
0.00012819
0.000132141
0.000133599
0.000134395
0.000134773
0.000134906
0.000134915
0.000134883
0.000134856
0.000134846
0.000122467
0.000126835
0.000129374
0.000131164
0.000132393
0.000133211
0.000133737
0.000134067
0.000134271
0.0001344
0.000118913
0.000123067
0.000126073
0.000128374
0.00013011
0.000131399
0.000132339
0.000133012
0.000133486
0.000133817
0.000118214
0.000121939
0.000124944
0.000127309
0.000129153
0.000130574
0.000131655
0.000132465
0.000133064
0.000133502
0.000120621
0.00012384
0.000126421
0.000128437
0.000130005
0.000131215
0.000132136
0.000132829
0.000133344
0.00013372
0.000126282
0.000128233
0.000129716
0.000130922
0.000131884
0.000132633
0.000133204
0.000133633
0.000133964
0.000134293
0.000131488
0.000131385
0.000131817
0.000132371
0.000132894
0.000133333
0.000133679
0.000133939
0.00013413
0.00013427
0.000132548
0.000132595
0.000132801
0.000133089
0.000133388
0.000133657
0.000133878
0.00013405
0.000134175
0.000134263
0.000133264
0.000133311
0.000133421
0.000133573
0.000133739
0.000133895
0.000134028
0.000134133
0.000134211
0.000134265
0.000133711
0.00013374
0.000133799
0.000133879
0.000133968
0.000134054
0.00013413
0.000134191
0.000134236
0.000134267
0.000133974
0.00013399
0.00013402
0.000134062
0.000134108
0.000134153
0.000134194
0.000134227
0.000134252
0.000134269
0.000134121
0.000134129
0.000134145
0.000134165
0.000134188
0.000134211
0.000134231
0.000134248
0.000134261
0.000134269
0.000134199
0.000134203
0.00013421
0.00013422
0.000134231
0.000134242
0.000134251
0.00013426
0.000134266
0.000134269
0.000134238
0.00013424
0.000134243
0.000134247
0.000134252
0.000134257
0.000134261
0.000134265
0.000134268
0.000134269
0.000134257
0.000134257
0.000134259
0.00013426
0.000134262
0.000134264
0.000134266
0.000134268
0.000134269
0.000134269
0.000134264
0.000134265
0.000134265
0.000134266
0.000134267
0.000134267
0.000134268
0.000134269
0.000134269
0.000134269
0.000134268
0.000134268
0.000134268
0.000134268
0.000134268
0.000134269
0.000134269
0.000134269
0.000134269
0.000134269
0.000134269
0.000134269
0.000134269
0.000134269
0.000134269
0.000134269
0.000134269
0.000134269
0.000134269
0.000134269
0.000134269
0.000134269
0.000134269
0.000134269
0.000134269
0.000134269
0.000134269
0.000134269
0.000134269
0.000134269
0.000134269
0.000134269
0.000134269
0.000134269
0.000134269
0.000134269
0.000134269
0.000134269
0.000134269
0.000134269
0.000134269
0.000134269
0.000134269
0.000134269
0.000134269
0.000134269
0.000134269
0.000134269
0.000134269
0.000134269
0.000134269
0.000134269
0.000134269
0.000134269
0.000134269
0.000134269
0.000134269
0.000134269
0.000134269
0.000134269
0.000134269
0.000134269
0.000134269
0.000134269
0.000134269
0.000134269
0.000134269
0.000134269
0.000134269
0.000134269
0.000134269
0.000134269
0.000134269
0.000134269
0.000134269
0.000134269
0.000134269
0.000134269
0.000134269
0.000134269
0.000134269
0.000134269
0.000134269
0.000134269
0.000134269
0.000134269
0.000134269
0.000134269
0.000134269
0.000134269
0.000134269
0.000134269
0.000134269
0.000134269
0.000134269
0.000134269
0.000134269
0.000134269
0.000134269
0.000134269
0.000134269
0.000134269
0.000134269
0.000134269
0.000134269
0.000134269
0.000134269
0.000134269
0.000134269
0.000134269
0.000134269
0.000134269
0.000134269
0.000134269
0.000134269
0.000134269
0.000134269
0.000134269
0.000134269
0.000134269
0.000134269
0.000134269
0.000134269
0.000134269
0.000134269
0.000134269
0.000134269
0.000134269
0.000134269
0.000134269
0.000134269
0.000134269
0.000134269
0.000134269
0.000134269
0.000134269
0.000134269
0.000134269
0.000134269
0.000134269
0.000134269
0.000134269
0.000134269
0.000134269
0.000134269
0.000134269
0.000134269
0.000134269
0.000134269
0.000134269
0.000134269
0.000134269
0.000134269
0.000134269
0.000134269
0.000134269
0.000134269
0.000134269
0.000134269
0.000134269
0.000134269
0.000134269
0.000134269
0.000134269
0.000134269
0.000134269
0.000134269
0.000134269
0.000134269
0.000134269
0.000134269
0.000134269
0.000134269
0.000134269
0.000134269
0.000134269
0.000134269
0.000134269
0.000134269
0.000134269
0.000134269
0.000134269
0.000134269
0.000134269
0.000134269
0.000134269
0.000134269
0.000134269
0.000134269
0.000134269
0.000134269
0.000134269
0.000134269
0.000134269
0.000134269
0.000134269
0.000134269
0.000134269
0.000134269
0.000134269
0.000134269
0.000134269
0.000134269
0.000134269
0.000134269
0.000134269
0.000134269
0.000134269
0.000134269
0.000134269
0.000134269
0.000134269
0.000134269
0.000134269
0.000134269
0.000134269
0.000134269
0.000134269
0.000134269
0.000134269
0.000134269
0.000134269
0.000134269
0.000134269
0.000134269
0.000134269
0.000134269
0.000134269
0.000134269
0.000134269
0.000134269
0.000134269
0.000134269
0.000134269
0.000134269
0.000134269
0.000134269
0.000134269
0.000134269
0.000134269
0.000134269
0.000134269
0.000134269
0.000134269
0.000134269
0.000134269
0.000134269
0.000134269
0.000134269
0.000134269
0.000134269
0.000134269
0.000134269
0.000134269
0.000134269
0.000134269
0.000134269
0.000134269
0.000134269
0.000134269
0.000134269
0.000134269
0.000134269
0.000134269
0.000134269
0.000134269
0.000134269
0.000134269
0.000134269
0.000134269
0.000134269
0.000134269
0.000134269
0.000134269
0.000134269
0.000134269
0.000134269
0.000134269
0.000134269
0.000134269
0.000134269
0.000134269
0.000134269
0.000134269
0.000134269
0.000134269
0.000134269
0.000134269
0.000134269
0.000134269
0.000134269
0.000134269
0.000134269
0.000134269
0.000134269
0.000134269
0.000134269
0.000134269
0.000134269
0.000134269
0.000134269
0.000134269
0.000134269
0.000134269
0.000134269
0.000134269
0.000134269
0.000134269
0.000134269
0.000134269
0.000134269
0.000134269
0.000134269
0.000134269
0.000134269
0.000134269
0.000134269
0.000134269
0.000134269
0.000134269
0.000134269
0.000134269
0.000134269
0.000134269
0.000134269
0.000134269
0.000134269
0.000134269
0.000134269
0.000134269
0.000134269
0.000134269
0.000134269
0.000134269
0.000134269
0.000134269
0.000134269
0.000134269
0.000134269
0.000134269
0.000134269
0.000134269
0.000134269
0.000134269
0.000134269
0.000134269
0.000134269
0.000134269
0.000134269
0.000134269
0.000134269
0.000134269
0.000134269
0.000134269
0.000134269
0.000134269
0.000134269
0.000134269
0.000134269
0.000134269
0.000134269
0.000134269
0.000134269
0.000134269
0.000134269
0.000134269
0.000134269
0.000134269
0.000134269
0.000134269
0.000134269
0.000134269
0.000134269
0.000134269
0.000134269
0.000134269
0.000134269
0.000134269
0.000134269
0.000134269
0.000134269
0.000134269
0.000134269
0.000134269
0.000134269
0.000134269
0.000134269
0.000134269
0.000134269
0.000134269
0.000134269
0.000134269
0.000134269
0.000134269
0.000134269
0.000134269
0.000134269
0.000134269
0.000134269
0.000134269
0.000134269
0.000134269
0.000134269
0.000134269
0.000134269
0.000134269
0.000134269
0.000134269
0.000134269
0.000134269
0.000134269
0.000134269
0.000134269
0.000134269
0.000134269
0.000134269
0.000134269
0.000134269
0.000134269
0.000134269
0.000134269
0.000134269
0.000134269
0.000134269
0.000134269
0.000134269
0.000134269
0.000134269
0.000134269
0.000134269
0.000134269
0.000134269
0.000134269
0.000134269
0.000134269
0.000134269
0.000134269
0.000134269
0.000134269
0.000134269
0.000134269
0.000134269
0.000134269
0.000134269
0.000134269
0.000134269
0.000134269
0.000134269
0.000134269
0.000134269
0.000134269
0.000134269
0.000134269
0.000134269
0.000134269
0.000134269
0.000134269
0.000134269
0.000134269
0.000134269
0.000134269
0.000134269
0.000134269
0.000134269
0.000134269
0.000134269
0.000134269
0.000134269
0.000134269
0.000134269
0.000134269
0.000134269
0.000134269
0.000134269
0.000134269
0.000134269
0.000134269
0.000134269
0.000134269
0.000134269
0.000134269
0.000134269
0.000134269
0.000134269
0.000134269
0.000134269
0.000134269
0.000134269
0.000134269
0.000134269
0.000134269
0.000134269
0.000134269
0.000134269
0.000134269
0.000134269
0.000134269
0.000134269
0.000134269
0.000134269
0.000134269
0.000134269
0.000134269
0.000134269
0.000134269
0.000134269
0.000134269
0.000134269
0.000134269
0.000134269
0.000134269
0.000134269
0.000134269
0.000134269
0.000134269
0.000134269
0.000134269
0.000134269
0.000134269
0.000134269
0.000134269
0.000134269
0.000134269
0.000134269
0.000134269
0.000134269
0.000134269
0.000134269
0.000134269
0.000134269
0.000134269
0.000134269
0.000134269
0.000134269
0.000134269
0.000134269
0.000134269
0.000134269
0.000134269
0.000134269
0.000134269
0.000134269
0.000134269
0.000134269
0.000134269
0.000134269
0.000134269
0.000134269
0.000134269
0.000134269
0.000134269
0.000134269
0.000134269
0.000134269
0.000134269
0.000134269
0.000134269
0.000134269
0.000134269
0.000134269
0.000134269
0.000134269
0.000134269
0.000134269
0.000134269
0.000134269
0.000134269
0.000134269
0.000134269
0.000134269
0.000134269
0.000134269
0.000134269
0.000134269
0.000134269
0.000134269
0.000134269
0.000134269
0.000134269
0.000134269
0.000134269
0.000134269
0.000134269
0.000134269
0.000134269
0.000134269
0.000134269
0.000134269
0.000134269
0.000134269
0.000134269
0.000134269
0.000134269
0.000134269
0.000134269
0.000134269
0.000134269
0.000134269
0.000134269
0.000134269
0.000134501
0.000134554
0.000134619
0.000134685
0.000134733
0.000134754
0.000134744
0.000134716
0.000134649
0.000134565
0.000134424
0.000134435
0.000134443
0.000134439
0.00013441
0.000134352
0.000134269
0.000134162
0.000134033
0.000133901
0.000134466
0.00013446
0.000134439
0.000134396
0.000134329
0.00013424
0.000134132
0.000134009
0.000133875
0.000133736
0.000134538
0.000134541
0.000134512
0.000134456
0.000134377
0.000134284
0.000134186
0.00013409
0.000134005
0.000133944
0.00013465
0.00013468
0.00013465
0.000134579
0.000134487
0.000134394
0.000134317
0.000134272
0.000134275
0.000134349
0.000134821
0.000134917
0.000134888
0.000134786
0.000134659
0.000134545
0.000134469
0.000134453
0.000134517
0.000134684
0.000135075
0.000135312
0.000135293
0.000135134
0.000134934
0.000134753
0.000134629
0.000134587
0.000134656
0.000134869
0.000135443
0.000135953
0.000135957
0.000135706
0.000135377
0.000135057
0.000134786
0.00013459
0.000134526
0.000134722
0.000135979
0.000136968
0.000136994
0.000136603
0.000136077
0.000135515
0.000134913
0.000134237
0.00013354
0.000133188
0.000136521
0.00013855
0.000138763
0.000138351
0.000137725
0.000136965
0.000135944
0.000134349
0.000131634
0.000126821
0.000134363
0.000134391
0.000134426
0.000134467
0.000134518
0.000134577
0.000134625
0.000134608
0.000134373
0.00013349
0.000134318
0.000134348
0.000134367
0.000134383
0.000134396
0.000134402
0.000134385
0.000134317
0.000134159
0.000133914
0.000134298
0.000134316
0.000134324
0.000134324
0.000134319
0.000134305
0.000134274
0.000134218
0.000134135
0.000134053
0.000134286
0.000134294
0.000134295
0.00013429
0.000134278
0.00013426
0.000134232
0.000134195
0.000134152
0.00013412
0.000134278
0.000134281
0.000134279
0.000134272
0.000134261
0.000134245
0.000134225
0.000134202
0.000134179
0.000134163
0.000134273
0.000134274
0.000134271
0.000134265
0.000134257
0.000134245
0.000134232
0.000134218
0.000134205
0.000134197
0.000134271
0.000134271
0.000134268
0.000134264
0.000134258
0.00013425
0.000134242
0.000134234
0.000134227
0.000134222
0.00013427
0.000134269
0.000134267
0.000134265
0.000134261
0.000134256
0.000134252
0.000134247
0.000134243
0.00013424
0.000134269
0.000134269
0.000134268
0.000134266
0.000134264
0.000134261
0.000134259
0.000134256
0.000134254
0.000134253
0.000134269
0.000134269
0.000134268
0.000134267
0.000134266
0.000134265
0.000134263
0.000134262
0.000134261
0.00013426
0.000134269
0.000134269
0.000134269
0.000134268
0.000134268
0.000134267
0.000134266
0.000134265
0.000134265
0.000134264
0.000134269
0.000134269
0.000134269
0.000134269
0.000134268
0.000134268
0.000134268
0.000134267
0.000134267
0.000134267
0.000134269
0.000134269
0.000134269
0.000134269
0.000134269
0.000134269
0.000134268
0.000134268
0.000134268
0.000134268
0.000134269
0.000134269
0.000134269
0.000134269
0.000134269
0.000134269
0.000134269
0.000134269
0.000134269
0.000134268
0.000134269
0.000134269
0.000134269
0.000134269
0.000134269
0.000134269
0.000134269
0.000134269
0.000134269
0.000134269
0.000134269
0.000134269
0.000134269
0.000134269
0.000134269
0.000134269
0.000134269
0.000134269
0.000134269
0.000134269
0.000134269
0.000134269
0.000134269
0.000134269
0.000134269
0.000134269
0.000134269
0.000134269
0.000134269
0.000134269
0.000134269
0.000134269
0.000134269
0.000134269
0.000134269
0.000134269
0.000134269
0.000134269
0.000134269
0.000134269
0.000134269
0.000134269
0.000134269
0.000134269
0.000134269
0.000134269
0.000134269
0.000134269
0.000134269
0.000134269
0.000134269
0.000134269
0.000134269
0.000134269
0.000134269
0.000134269
0.000134269
0.000134269
0.000134269
0.000134269
0.000134269
0.000134269
0.000134269
0.000134269
0.000134269
0.000134269
0.000134269
0.000134269
0.000134269
0.000134269
0.000134269
0.000134269
0.000134269
0.000134269
0.000134269
0.000134269
0.000134269
0.000134269
0.000134269
0.000134269
0.000134269
0.000134269
0.000134269
0.000134269
0.000134269
0.000134269
0.000134269
0.000134269
0.000134269
0.000134269
0.000134269
0.000134269
0.000134269
0.000134269
0.000134269
0.000134269
0.000134269
0.000134269
0.000134269
0.000134269
0.000134269
0.000134269
0.000134269
0.000134269
0.000134269
0.000134269
0.000134269
0.000134269
0.000134269
0.000134269
0.000134269
0.000134269
0.000134269
0.000134269
0.000134269
0.000134269
0.000134269
0.000134269
0.000134269
0.000134269
0.000134269
0.000134269
0.000134269
0.000134269
0.000134269
0.000134269
0.000134269
0.000134269
0.000134269
0.000134269
0.000134269
0.000134269
0.000134269
0.000134269
0.000134269
0.000134269
0.000134269
0.000134269
0.000134269
0.000134269
0.000134269
0.000134269
0.000134269
0.000134269
0.000134269
0.000134269
0.000134269
0.000134269
0.000134269
0.000134269
0.000134269
0.000134269
0.000134269
0.000134269
0.000134269
0.000134269
0.000134269
0.000134269
0.000134269
0.000134269
0.000134269
0.000134269
0.000134269
0.000134269
0.000134269
0.000134269
0.000134269
0.000134269
0.000134269
0.000134269
0.000134269
0.000134269
0.000134269
0.000134269
0.000134269
0.000134269
0.000134269
0.000134269
0.000134269
0.000134269
0.000134269
0.000134269
0.000134269
0.000134269
0.000134269
0.000134269
0.000134269
0.000134269
0.000134269
0.000134269
0.000134269
0.000134269
0.000134269
0.000134269
0.000134269
0.000134269
0.000134269
0.000134269
0.000134269
0.000134269
0.000134269
0.000134269
0.000134269
0.000134269
0.000134269
0.000134269
0.000134269
0.000134269
0.000134269
0.000134269
0.000134269
0.000134269
0.000134269
0.000134269
0.000134269
0.000134269
0.000134269
0.000134269
0.000134269
0.000134269
0.000134269
0.000134269
0.000134269
0.000134269
0.000134269
0.000134269
0.000134269
0.000134269
0.000134269
0.000134269
0.000134269
0.000134269
0.000134269
0.000134269
0.000134269
0.000134269
0.000134269
0.000134269
0.000134269
0.000134269
0.000134269
0.000134269
0.000134269
0.000134269
0.000134269
0.000134269
0.000134269
0.000134269
0.000134269
0.000134269
0.000134269
0.000134269
0.000134269
0.000134269
0.000134269
0.000134269
0.000134269
0.000134269
0.000134269
0.000134269
0.000134269
0.000134269
0.000134269
0.000134269
0.000134269
0.000134269
0.000134269
0.000134269
0.000134269
0.000134269
0.000134269
0.000134269
0.000134269
0.000134269
0.000134269
0.000134269
0.000134269
0.000134269
0.000134269
0.000134269
0.000134269
0.000134269
0.000134269
0.000134269
0.000134269
0.000134269
0.000134269
0.000134269
0.000134269
0.000134269
0.000134269
0.000134269
0.000134269
0.000134269
0.000134269
0.000134269
0.000134269
0.000134269
0.000134269
0.000134269
0.000134269
0.000134269
0.000134269
0.000134269
0.000134269
0.000134269
0.000134269
0.000134269
0.000134269
0.000134269
0.000134269
0.000134269
0.000134269
0.000134269
0.000134269
0.000134269
0.000134269
0.000134269
0.000134269
0.000134269
0.000134269
0.000134269
0.000134269
0.000134269
0.000134269
0.000134269
0.000134269
0.000134269
0.000134269
0.000134269
0.000134269
0.000134269
0.000134269
0.000134269
0.000134269
0.000134269
0.000134269
0.000134269
0.000134269
0.000134269
0.000134269
0.000134269
0.000134269
0.000134269
0.000134269
0.000134269
0.000134269
0.000134269
0.000134269
0.000134269
0.000134269
0.000134269
0.000134269
0.000134269
0.000134269
0.000134269
0.000134269
0.000134269
0.000134269
0.000134269
0.000134269
0.000134269
0.000134269
0.000134269
0.000134269
0.000134269
0.000134269
0.000134269
0.000134269
0.000134269
0.000134269
0.000134269
0.000134269
0.000134269
0.000134269
0.000134269
0.000134269
0.000134269
0.000134269
0.000134269
0.000134269
0.000134269
0.000134269
0.000134269
0.000134269
0.000134269
0.000134269
0.000134269
0.000134269
0.000134269
0.000134269
0.000134269
0.000134269
0.000134269
0.000134269
0.000134269
0.000134269
0.000134269
0.000134269
0.000134269
0.000134269
0.000134269
0.000134269
0.000134269
0.000134269
0.000134269
0.000134269
0.000134269
0.000134269
0.000134269
0.000134269
0.000134269
0.000134269
0.000134269
0.000134269
0.000134269
0.000134269
0.000134269
0.000134269
0.000134269
0.000134269
0.000134269
0.000134269
0.000134269
0.000134269
0.000134269
0.000134269
0.000134269
0.000134269
0.000134269
0.000134269
0.000134269
0.000134269
0.000134269
0.000134269
0.000134269
0.000134269
0.000134269
0.000134269
0.000134269
0.000134269
0.000134269
0.000134269
0.000134269
0.000134269
0.000134269
0.000134269
0.000134269
0.000134269
0.000134269
0.000134269
0.000134269
0.000134269
0.000134269
0.000134269
0.000134269
0.000134269
0.000134269
0.000134269
0.000134269
0.000134269
0.000134269
0.000134269
0.000134269
0.000134269
0.000134269
0.000134269
0.000134269
0.000134269
0.000134269
0.000134269
0.000134269
0.000134269
0.000134269
0.000134269
0.000134269
0.000134269
0.000134269
0.000134269
0.000134269
0.000134269
0.000134269
0.000134269
0.000134269
0.000134269
0.000134269
0.000134269
0.000134269
0.000134269
0.000134269
0.000134269
0.000134269
0.000134269
0.000134269
0.000134269
0.000134269
0.000134269
0.000134269
0.000134269
0.000134269
0.000134269
0.000134269
0.000134269
0.000134269
0.000134269
0.000134269
0.000134269
0.000134269
0.000134269
0.000134269
0.000134269
0.000134269
0.000134269
0.000134269
0.000134269
0.000134269
0.000134269
0.000134269
0.000134269
0.000134269
0.000134269
0.000134269
0.000134269
0.000134269
0.000134269
0.000134269
0.000134269
0.000134269
0.000134269
0.000134269
0.000134269
0.000134269
0.000134269
0.000134269
0.000134269
0.000134269
0.000134269
0.000134269
0.000134269
0.000134269
0.000134269
0.000134269
0.000134269
0.000134269
0.000134269
0.000134269
0.000134269
0.000134269
0.000134269
0.000134269
0.000134269
0.000134269
0.000134269
0.000134269
0.000134269
0.000134269
0.000134269
0.000134269
0.000134269
0.000134269
)
;

boundaryField
{
    defaultFaces
    {
        type            empty;
    }
}


// ************************************************************************* //
