/*--------------------------------*- C++ -*----------------------------------*\
  =========                 |
  \\      /  F ield         | OpenFOAM: The Open Source CFD Toolbox
   \\    /   O peration     | Website:  https://openfoam.org
    \\  /    A nd           | Version:  11
     \\/     M anipulation  |
\*---------------------------------------------------------------------------*/
FoamFile
{
    format      ascii;
    class       volScalarField;
    location    "9.5";
    object      nut;
}
// * * * * * * * * * * * * * * * * * * * * * * * * * * * * * * * * * * * * * //

dimensions      [0 2 -1 0 0 0 0];

internalField   nonuniform List<scalar> 
700
(
0.000134269
0.000134269
0.000134269
0.000134269
0.000134269
0.000134269
0.000134269
0.000134269
0.000134269
0.000134269
0.000134269
0.000134269
0.000134269
0.000134269
0.000134269
0.000134269
0.000134269
0.000134269
0.000134269
0.000134269
0.000134269
0.000134269
0.000134269
0.000134269
0.000134269
0.000134269
0.000134269
0.000134269
0.000134269
0.000134269
0.000134269
0.000134269
0.000134269
0.000134269
0.000134269
0.000134269
0.000134269
0.000134269
0.000134269
0.000134269
0.000134269
0.000134269
0.000134269
0.000134269
0.000134269
0.000134269
0.000134269
0.000134269
0.000134269
0.000134269
0.000134269
0.000134269
0.000134269
0.000134269
0.000134269
0.000134269
0.000134269
0.000134269
0.000134269
0.000134269
0.00013427
0.00013427
0.00013427
0.000134269
0.000134269
0.000134269
0.000134269
0.000134268
0.000134268
0.000134268
0.000134298
0.000134291
0.000134283
0.000134276
0.000134272
0.000134269
0.000134267
0.000134265
0.000134261
0.000134259
0.000134677
0.000134567
0.000134445
0.000134355
0.000134302
0.000134272
0.000134248
0.000134218
0.000134178
0.000134138
0.000138599
0.000137049
0.000135756
0.000134946
0.000134508
0.000134265
0.000134077
0.000133845
0.000133489
0.00013291
0.00015178
0.000144009
0.000138889
0.00013631
0.00013501
0.000134289
0.000133784
0.000133347
0.000132944
0.000132796
0.000148
0.000144531
0.000140213
0.000137462
0.000135833
0.000134876
0.000134255
0.000133767
0.000133305
0.000132927
0.000142162
0.0001422
0.000139847
0.000137918
0.000136504
0.000135529
0.000134859
0.000134362
0.000133936
0.000133533
0.000135199
0.000137773
0.000137533
0.000136965
0.00013632
0.000135725
0.000135228
0.000134821
0.000134475
0.000134148
0.000128251
0.000132229
0.000133702
0.000134498
0.000134859
0.000134956
0.000134908
0.000134788
0.000134635
0.000134461
0.000122487
0.000126865
0.000129413
0.000131208
0.000132437
0.000133247
0.000133759
0.000134062
0.000134223
0.00013429
0.000118921
0.000123077
0.000126086
0.00012839
0.000130127
0.000131414
0.00013235
0.000133016
0.000133478
0.00013379
0.000118218
0.000121943
0.000124949
0.000127315
0.000129159
0.000130579
0.000131658
0.000132465
0.000133058
0.000133485
0.000120623
0.000123842
0.000126423
0.000128439
0.000130007
0.000131216
0.00013214
0.000132839
0.000133372
0.000133791
0.000126284
0.000128234
0.000129717
0.000130923
0.000131887
0.000132645
0.000133242
0.000133739
0.000134209
0.000134724
0.000131489
0.000131387
0.000131819
0.000132372
0.000132896
0.000133339
0.000133696
0.000133986
0.000134231
0.000134438
0.00013255
0.000132597
0.000132803
0.000133091
0.000133389
0.000133659
0.000133884
0.000134064
0.000134207
0.000134314
0.000133266
0.000133313
0.000133423
0.000133575
0.00013374
0.000133896
0.00013403
0.000134137
0.000134219
0.000134278
0.000133713
0.000133742
0.000133801
0.000133881
0.00013397
0.000134056
0.000134131
0.000134192
0.000134239
0.000134271
0.000133977
0.000133993
0.000134023
0.000134064
0.00013411
0.000134155
0.000134196
0.000134229
0.000134254
0.00013427
0.000134125
0.000134133
0.000134148
0.000134168
0.000134191
0.000134213
0.000134234
0.00013425
0.000134263
0.000134271
0.000134203
0.000134206
0.000134213
0.000134223
0.000134234
0.000134244
0.000134254
0.000134262
0.000134268
0.000134272
0.000134241
0.000134243
0.000134246
0.00013425
0.000134255
0.00013426
0.000134264
0.000134268
0.000134271
0.000134272
0.000134259
0.00013426
0.000134261
0.000134263
0.000134265
0.000134267
0.000134269
0.00013427
0.000134271
0.000134272
0.000134265
0.000134266
0.000134266
0.000134267
0.000134268
0.000134269
0.00013427
0.00013427
0.000134271
0.000134271
0.00013427
0.00013427
0.00013427
0.00013427
0.00013427
0.00013427
0.00013427
0.00013427
0.00013427
0.00013427
0.00013427
0.00013427
0.00013427
0.00013427
0.00013427
0.00013427
0.00013427
0.00013427
0.00013427
0.00013427
0.00013427
0.00013427
0.00013427
0.00013427
0.00013427
0.00013427
0.00013427
0.00013427
0.00013427
0.00013427
0.00013427
0.00013427
0.00013427
0.00013427
0.00013427
0.00013427
0.00013427
0.00013427
0.00013427
0.00013427
0.00013427
0.00013427
0.00013427
0.00013427
0.00013427
0.00013427
0.00013427
0.00013427
0.00013427
0.00013427
0.00013427
0.00013427
0.00013427
0.00013427
0.00013427
0.00013427
0.00013427
0.00013427
0.00013427
0.00013427
0.00013427
0.00013427
0.00013427
0.00013427
0.00013427
0.00013427
0.00013427
0.00013427
0.00013427
0.00013427
0.00013427
0.00013427
0.00013427
0.00013427
0.00013427
0.00013427
0.00013427
0.00013427
0.00013427
0.00013427
0.00013427
0.00013427
0.00013427
0.00013427
0.00013427
0.00013427
0.00013427
0.00013427
0.00013427
0.00013427
0.00013427
0.00013427
0.00013427
0.00013427
0.00013427
0.00013427
0.00013427
0.00013427
0.00013427
0.00013427
0.000134816
0.000134922
0.000135026
0.000135103
0.000135142
0.000135144
0.000135115
0.000135071
0.000135001
0.000134917
0.000134601
0.0001347
0.000134789
0.000134828
0.000134796
0.000134703
0.000134566
0.0001344
0.000134216
0.00013403
0.000134536
0.000134586
0.000134615
0.000134589
0.000134503
0.000134371
0.000134212
0.000134042
0.000133873
0.000133713
0.000134562
0.000134586
0.000134575
0.000134518
0.000134422
0.000134305
0.000134184
0.000134071
0.000133976
0.000133908
0.000134657
0.000134693
0.000134665
0.000134589
0.000134488
0.000134383
0.000134291
0.000134226
0.0001342
0.000134232
0.000134822
0.000134918
0.000134888
0.000134781
0.000134644
0.000134511
0.0001344
0.000134323
0.000134292
0.000134321
0.000135075
0.00013531
0.000135288
0.000135121
0.000134902
0.000134681
0.000134478
0.000134297
0.000134141
0.000134026
0.000135443
0.00013595
0.000135949
0.000135686
0.000135326
0.000134939
0.000134539
0.000134113
0.000133678
0.000133314
0.000135979
0.000136965
0.000136984
0.000136576
0.00013601
0.000135366
0.000134615
0.000133698
0.000132643
0.000131764
0.000136521
0.000138546
0.000138751
0.000138319
0.000137647
0.000136804
0.00013566
0.000133946
0.000131241
0.000126848
0.000134557
0.000134493
0.000134464
0.000134479
0.000134522
0.000134578
0.000134626
0.000134609
0.000134373
0.00013349
0.000134375
0.000134382
0.000134382
0.000134388
0.000134398
0.000134403
0.000134387
0.000134319
0.00013416
0.000133915
0.000134312
0.000134325
0.000134328
0.000134327
0.000134321
0.000134306
0.000134275
0.000134219
0.000134137
0.000134054
0.000134289
0.000134297
0.000134297
0.000134291
0.00013428
0.000134262
0.000134235
0.000134197
0.000134154
0.000134121
0.00013428
0.000134283
0.000134281
0.000134274
0.000134263
0.000134248
0.000134228
0.000134204
0.00013418
0.000134165
0.000134276
0.000134276
0.000134273
0.000134268
0.000134259
0.000134248
0.000134234
0.00013422
0.000134207
0.000134198
0.000134274
0.000134273
0.000134271
0.000134266
0.000134261
0.000134253
0.000134245
0.000134236
0.000134228
0.000134224
0.000134273
0.000134272
0.00013427
0.000134267
0.000134264
0.000134259
0.000134254
0.000134249
0.000134244
0.000134241
0.000134272
0.000134271
0.00013427
0.000134268
0.000134266
0.000134263
0.00013426
0.000134257
0.000134254
0.000134253
0.000134271
0.00013427
0.00013427
0.000134269
0.000134267
0.000134266
0.000134264
0.000134262
0.00013426
0.000134259
0.00013427
0.00013427
0.00013427
0.00013427
0.00013427
0.00013427
0.000134269
0.000134269
0.000134268
0.000134268
0.00013427
0.00013427
0.00013427
0.00013427
0.00013427
0.00013427
0.00013427
0.00013427
0.000134269
0.000134269
0.00013427
0.00013427
0.00013427
0.00013427
0.00013427
0.00013427
0.00013427
0.00013427
0.000134269
0.000134269
0.00013427
0.00013427
0.00013427
0.00013427
0.00013427
0.00013427
0.00013427
0.00013427
0.000134269
0.000134269
0.00013427
0.00013427
0.00013427
0.00013427
0.00013427
0.00013427
0.00013427
0.00013427
0.000134269
0.000134269
0.00013427
0.00013427
0.00013427
0.00013427
0.00013427
0.00013427
0.00013427
0.00013427
0.000134269
0.000134269
0.00013427
0.00013427
0.00013427
0.00013427
0.00013427
0.00013427
0.00013427
0.00013427
0.000134269
0.000134269
0.00013427
0.00013427
0.00013427
0.00013427
0.00013427
0.00013427
0.00013427
0.00013427
0.000134269
0.000134269
0.00013427
0.00013427
0.00013427
0.00013427
0.00013427
0.00013427
0.00013427
0.00013427
0.000134269
0.000134269
0.00013427
0.00013427
0.00013427
0.00013427
0.00013427
0.00013427
0.00013427
0.00013427
0.000134269
0.000134269
)
;

boundaryField
{
    defaultFaces
    {
        type            empty;
    }
}


// ************************************************************************* //
