/*--------------------------------*- C++ -*----------------------------------*\
  =========                 |
  \\      /  F ield         | OpenFOAM: The Open Source CFD Toolbox
   \\    /   O peration     | Website:  https://openfoam.org
    \\  /    A nd           | Version:  11
     \\/     M anipulation  |
\*---------------------------------------------------------------------------*/
FoamFile
{
    format      ascii;
    class       volScalarField;
    location    "1.2";
    object      gradTz;
}
// * * * * * * * * * * * * * * * * * * * * * * * * * * * * * * * * * * * * * //

dimensions      [0 -1 0 1 0 0 0];

internalField   nonuniform List<scalar> 
5712
(
8075.51
26474
6439.1
27126.6
4797.49
27933.2
7492.94
42663.7
9192.9
58551.3
9172.79
42881.5
8895.57
35724.7
9251.01
31996.5
5594.08
3534.99
14986
8977.33
5432.49
2948.42
16210.2
8053.36
6211.86
4611.44
19865.8
14250.4
4702.69
3494.74
19525
14442.5
11059.7
4717.41
9622.69
4340.34
4513.65
10437.5
37389.6
10048.4
13424.8
4399.91
47752.1
12832.2
12395
4099.52
26956.7
8310.95
13856.9
4748.76
23665.3
7481.22
7529.49
3733.88
10335.3
4087.51
8166.74
4397.76
10043.4
3922.1
10147.1
5825.14
8657.38
3834
12458
4533.32
4248.45
1500.06
14246.2
10068.3
8645.71
6403.43
15263.9
12607.6
8250.94
7128.09
8443.67
5873.73
12270.2
8479.68
5571.92
4123.36
2672.04
2199.9
5198.72
4478.87
2505.06
2440.7
5504.12
3689.96
2690.39
1739.9
7724.99
4256.91
5953.37
7041.88
10854.4
7760.09
8851.53
12235.3
4989.72
2403.65
3436.09
3970.5
2382.91
1013.08
1414.65
1442.3
10388
18511
6960.54
20559.8
12023.3
18041.6
8489.48
21365.4
13457.1
16197.4
10775.6
20592.7
14493.4
16378.2
11707.7
11502.4
12387
16463.2
16160.6
16722.5
17606.5
24981.1
13411.1
11060.4
10106
11429.9
17377.8
21620.6
19487.1
24954.8
24273.7
19802.5
18499.5
24537.4
23677
17089.2
16827.5
22867
22697.9
12178.9
9769.47
12233.6
10978.2
13796.9
12836.6
15232.3
15047.5
20756.4
21715.9
11303.8
10128.2
11494.2
11695.2
12336
13775.4
14102.2
16509.3
18270.1
21880.9
9534.82
7527.3
6404.3
7995.76
12239
14580.5
8349.05
12997.2
5672.74
7268.31
8630.43
7194.93
1627.77
5226.15
697.674
1784.34
4183.29
8593.13
1404.31
2864.92
958.264
4596.83
394.711
1541.74
5706.1
5758.23
6521.61
4215.68
9168.68
7483.44
10790.7
7696.34
1508.42
3135.48
3245.21
1948.04
1689.57
2165.33
2378.86
1805.13
15732
9654.82
3088.62
17709.1
10289.1
3390.11
15113.4
9556.81
3270.14
17367.4
10288.2
3388.93
13888.2
8797.26
2917.13
16854.9
10291.7
3454.36
6746.17
3912.14
1146.05
9115.94
6085.47
2097.9
11214.8
7730.54
2668.77
13188.6
8643.49
2889.41
16618.1
10509.6
3666.28
7790.38
4649.51
1566.2
8892.04
6470.68
2464.81
10850.1
8011.84
2976.28
13451.8
9496.23
3431.95
16853.2
10706.6
3836.25
281.07
2047.38
2861.32
4162.75
2343.94
2656.11
5837.23
5507.81
597.654
983.091
637.591
1022.73
459.483
1358.23
836.115
1783.8
3107.37
1531.02
3993.92
2333.67
2078.88
3592.31
3375.14
606.801
6413.86
1313.65
-2335.17
234.735
1547.97
949.029
916.111
642.733
9337.66
4004.64
2528.38
1480.16
9490.06
4143.91
3196.92
1872.03
9381.63
4432.53
4561.17
2998.09
3180.62
2149.9
1257.79
1207.87
12953
11409.6
6002.1
6180.51
14457.6
13480.6
7055.95
7059.27
5101.19
5204.84
10740
8830.29
3438.04
3620.08
1716.82
2061.92
4219.56
4188.13
2118.72
2331.87
2828.36
3102.2
1378.08
1875.83
4346.05
2797.76
4266.55
2754.87
6920.18
3717.91
6455.52
3858.26
2466.38
1956.3
2626.91
1724.93
1178.88
1107.23
1587.92
953.921
10812.7
6955.02
5082.62
4805.1
10799.3
7229.31
5095.08
4788.93
11343.2
7751.9
5169
4704.4
14226.2
15958.1
12491.3
7977.2
4110.88
15137.8
13378
11869.4
9311.65
5392.74
14130.3
12262
9398.24
6858.58
3858.06
5379.61
4402.47
4725.42
4984.78
5728.05
4481.35
4852.02
5011.07
6288.65
4767.86
5032.27
5100.44
11413.4
8154.95
10081.1
6965.59
7498.7
5886.26
6572.76
5355.18
4761.14
5183.56
9512.3
8310.7
7998.87
6910.09
6447.69
5697.43
5268.99
4996.9
3700.54
4912.43
7128.97
4860.26
4685.67
2901.44
9720.25
7516.49
6666.16
5455.62
3621.5
2191.69
5305.14
3857.1
4599.22
2203.79
1546.88
871.484
5065.46
3712
1623.54
1358.12
3807.16
1678.1
1382.6
699.095
2752.05
2414.23
2139.25
3009.91
3876.11
3471.95
2726.17
3814.36
2820.77
1716.97
1571.8
2064.24
747.612
329.687
14.1617
292.461
2941.67
1236.81
365.752
3221.75
862.208
231.707
3087.38
1380.66
424.949
3281.45
918.748
259.181
3103.56
1474.92
393.568
3336.26
972.187
236.368
5211.46
2802.75
715.544
4277.21
2159
561.162
3782.95
1861.96
525.422
3393.82
1609.16
373.66
3420.74
989.963
167.925
6354.06
3355.12
979.506
5250.52
2666.32
766.902
4385.82
2192.26
649.965
3774.23
1663.12
432.151
3729.51
948.862
239.447
1465.63
501.737
118.785
-71.3397
611.069
218.009
63.2714
-8.87418
1541.81
541.88
151.55
-33.018
765.358
291.8
135.725
59.1936
1636.79
590.797
212.75
32.3681
1265.56
528.992
172.875
30.0214
903.814
446.364
101.243
-34.129
761.575
441.495
204.829
98.8886
1302.78
527.088
137.849
-90.6469
1085.29
431.59
173.031
-76.819
1572.2
571.869
186.18
-37.8236
1391.15
504.914
196.302
-121.803
995.486
455.659
147.831
-35.0154
797.678
356.159
168.238
1.98719
671.901
362.553
178.747
91.3632
506.72
273.11
158.279
78.1537
1833.57
606.268
135.069
-151.503
1754.52
553.508
189.201
-200.181
1826.86
610.276
144.268
-145.542
1701.65
537.054
191.6
-195.805
1784.8
604.985
194.898
-88.1774
1594.92
505.762
218.726
-150.233
1557.05
549.575
240.91
29.7742
1746.6
559.632
290.412
-171.112
1363.82
480.188
229.557
-29.5597
1337.19
384.552
160.036
-123.374
520.176
138.67
43.3958
-19.3454
1397.47
410.767
170.828
-116.583
549.003
150.2
51.7605
-11.8186
1447.54
439.584
197.654
-97.5721
571.302
163.324
61.4483
-3.44553
1316.31
411.767
218.059
-70.1462
563.914
168.07
79.4906
11.3047
1208.27
402.343
221.359
-30.1621
513.427
174.391
101.113
29.7913
805.437
296.919
130.826
-12.2748
466.341
205.251
106.793
49.0415
954.397
319.561
156.526
-26.5535
485.856
190.145
105.78
40.6969
622.218
265.792
124.077
14.7302
393.411
198.307
103.32
56.4865
405.469
218.172
126.572
65.3964
298.662
179.069
105.179
68.2351
-5.67579
2.3114
1.99531
1.14555
0.727404
-0.419371
1.58933
1.11642
0.619823
0.390278
4.81106
6.91843
4.13472
2.20478
1.3734
10.9995
6.83868
3.60888
1.86403
1.15096
15.1792
12.1703
6.68895
3.49427
2.16546
40.1391
22.6337
11.5077
5.88499
3.62762
45.2994
25.7887
13.2181
6.80477
4.21295
65.6299
33.7405
16.8023
8.5962
5.3237
23.4374
17.3811
9.35487
4.87375
3.02656
25.5462
16.4235
8.59959
4.45576
2.76396
17.0207
14.0352
7.60184
3.95238
2.44743
32.3199
17.6844
8.78255
4.46251
2.74404
29.6477
20.2659
10.8326
5.65272
3.51728
34.1454
19.3911
9.94517
5.13359
3.18619
51.8838
27.0331
13.5141
6.92638
4.29386
43.459
22.2942
11.1269
5.70646
3.54031
-11.8127
1.0602
1.45961
0.875074
0.560587
-6.65437
0.277629
0.550108
0.333807
0.213927
-4.91885
3.99389
2.78736
1.52405
0.953954
-4.14523
1.3461
1.02791
0.565508
0.353678
3.34459
7.19643
4.19619
2.21163
1.37122
5.58261
4.91628
2.58065
1.31515
0.806087
22.2067
14.2087
7.23158
3.67
2.24684
15.4374
9.23125
4.56571
2.29531
1.39994
41.1336
19.2397
9.1374
4.55061
2.77381
2264.79
5147.02
2347.65
5130.05
2633.66
5127.31
3113.72
5315.62
3193.47
5411.77
1356.58
1949.81
2146.46
3251.41
747.025
982.868
258.275
323.593
11538.5
2775.05
641.226
144.573
36.3394
3166.92
857.034
229.257
52.5771
11.5817
11335.8
2706.6
625.251
139.884
35.4367
3228.86
954.526
236.774
55.5045
13.9369
10703.2
2541.57
585.671
130.997
33.2559
3133.84
920.981
227.753
53.1178
13.3877
9653.26
2275.96
523.675
117.184
29.7956
3026.45
870.57
212.62
49.174
12.3358
7939.19
1865.35
430.052
96.4929
24.5986
2825.08
791.676
191.468
44.0466
11.028
3639.38
895.694
210.534
47.7003
12.213
1370.15
390.066
93.7639
21.2301
5.30884
5500.45
1334
310.828
70.004
17.8722
2018.35
566.996
137.253
31.5671
7.95926
2115.7
524.88
124.024
28.2577
7.25556
769.232
227.362
54.4633
12.3368
3.11362
726.689
179.46
42.5448
9.73366
2.50231
300.801
82.0738
18.4547
5.13321
1.03694
-369.938
181.283
4803.61
-1141.42
787.461
843.784
2458.24
3157.42
1998.96
3760.86
3220.74
4970.46
3939.02
4883.78
2028.54
2726.5
2135.27
2534.74
1107.93
1152.04
2271.16
1567.29
677.685
-158.61
-420.053
-495.075
29.2426
14012.1
4140.63
4930.46
3503.48
304.344
419.718
3348.24
-758.676
-242.516
-495.672
-299.223
7634.39
4212.49
1872.77
1375.47
3785.81
2277.97
820.367
1514.18
-932.271
-380.676
984.229
849.517
8937.97
4252.81
5631.87
2949.46
4029.96
4939.17
1734.85
-411.336
1249.4
1527.24
1175.8
952.368
794.925
551.429
1199.04
928.465
694.917
467.492
192.5
589.337
480.955
355.653
219.793
74.892
-141.513
-117.799
-87.542
-53.5313
-17.9719
-374.167
-311.19
-231.49
-141.889
-47.6952
-441.634
-367.976
-274.295
-168.437
-56.6816
27.2916
25.5171
22.6935
16.689
6.35099
9708.78
7829.48
6129.22
5002.7
4068.95
3358.02
2661.72
2199.27
1630.11
776.648
3690.42
2807.34
2160.34
1518.86
705.983
2586.6
1915.22
1485.17
1028.49
400.948
305.521
229.3
234.199
183.112
77.2584
418.437
392.012
330.807
229.245
85.4507
2747.89
2180.22
1611.83
1046.03
401.853
-395.108
-137.174
-11.5308
35.8204
22.1186
-175.9
-104.965
-43.4925
-5.86421
3.71459
-305.926
-150.398
-44.4292
5.83763
9.38467
-275.812
-231.327
-169.376
-100.649
-32.6777
5398.4
4538.55
3619.65
2997.43
2445.99
3183.43
2420.74
1860.28
1286.79
566.502
1637.25
1368.8
1058.15
695.024
255.929
1178.56
962.928
726.868
466.68
167.84
3104.53
2435.11
1780.15
1127.04
413.661
1970.97
1616.06
1215.36
771.809
270.733
703.879
572.675
427.602
269.855
94.6259
1313.86
1073.02
797.072
496.437
170.734
-802.591
-641.556
-458.706
-272.184
-89.6353
-334.855
-272.168
-195.621
-115.234
-37.4946
853.132
700.555
527.7
335.567
118.247
740.762
611.267
461.324
292.554
102.224
5610.9
3891.9
3095.59
2556.61
1973.54
3171.29
2381.94
1750.41
1173.24
494.464
4032.19
3149.85
2383.61
1698.27
760.498
2308.47
1815.12
1347.09
891.103
362.322
3367.18
2681.61
1977.53
1249.93
447.513
3697.56
2682.6
2023.11
1382.42
540.527
1492.97
1211.32
897.116
559.552
193.444
-365.522
-301.408
-220.644
-132.515
-43.7788
1074.3
878.532
662.3
423.362
150.155
-32013.6
-51846.1
-26623.1
-41903.9
-28215
-58138
-33692.3
-73900.6
-20416.4
-14115.5
-22671.2
-14323.7
-18701.2
-12139.1
-22862.8
-12266.9
-26794.6
-20443.4
-38608.8
-28109.1
-23063.9
-18620.9
-32182.7
-24421.8
-18313.8
-18944.6
-15133.6
-14756.9
-18031.4
-16733.3
-43444.1
-12011.6
-16809
-6368.63
-52712.4
-14716.2
-15013.8
-5748.01
-32604.7
-10274.3
-17214.8
-6656.04
-29192.5
-9041.28
-14132.9
-5726.68
-17765.4
-6471.61
-13457.2
-5961.71
-15417.6
-5620.5
-13915
-6835.05
-12325.5
-4938.05
-15573.7
-5537.13
-5451.28
-1925.49
-11819.5
-8143.86
-10195
-6412.77
-10293.9
-8428.62
-8886.26
-6436.95
-10448.4
-6188.48
-12313.3
-8015.59
-7016.13
-4331.22
-3807.68
-2436.38
-6066.17
-4267.24
-3236.38
-2372.25
-7149.69
-4054.94
-3941.62
-2084.58
-9280.24
-4746.77
-6209.57
-7053.23
-11864.3
-8023.7
-8802.44
-11979.4
-6262.09
-2825.73
-3725.75
-4050.1
-3353.14
-1356.5
-1687.47
-1535.19
-14145.2
-17455.2
-8047.94
-19887
-14707.4
-16652.3
-9252.22
-20313
-14848.6
-15110.6
-11020.1
-19275.8
-10006.6
-8023.11
-11143.8
-12438.4
-12435.7
-10851.9
-12775.6
-15054.6
-16428.3
-23297
-7646.41
-8116.86
-8945.92
-10789.1
-16515.2
-16721.2
-11714.4
-21309.4
-16490.4
-15505.8
-11521.9
-20997.4
-16439.3
-13716.1
-10815.1
-19605.3
-16306.5
-8853.03
-7061.63
-9491.97
-7686.6
-10735.9
-8849.84
-11936.8
-10288.1
-17831.5
-16417.8
-8238.81
-7231.34
-8654.55
-7856.41
-9738.22
-9478.04
-11765.3
-12011.4
-16290
-17118.2
-7696.41
-6147.54
-5670.62
-7164.52
-9226.18
-12270.1
-6989.38
-11358.8
-5343.53
-6794.26
-7618.68
-6250.91
-1333.59
-4764.04
-525.493
-1508.24
-3518.1
-7775.33
-973.382
-2318.46
-873.114
-4356.64
-378.57
-1413.48
-5529.55
-5435.53
-6347.19
-3932.96
-8544.47
-6709.79
-10272.1
-6890.96
-1479.6
-2991.81
-3178.36
-1820.95
-1710.02
-2098.91
-2355.38
-1739.69
-7149.54
-2458.97
-9698.76
-3301.43
-7313.08
-2573.34
-9932.18
-3556.06
-7272.74
-2538.12
-10491.2
-4018.98
-4237.36
-1241.52
-5424.46
-2051.91
-6276.98
-2411.89
-7640.86
-2868.67
-11109.5
-4392.15
-5258.37
-1667.21
-5246.74
-2484.69
-6448.21
-2953.56
-8576.48
-3667.69
-11636.1
-4384.13
-7088.59
-6598.36
-5574.57
-5385.33
-11880
-9116.63
-9796
-8111.22
-4608.16
-3766.04
-1919.15
-1320.46
-4417.57
-4036.67
-1853.49
-1826.21
-3609.55
-5180.87
-4144.25
-5564.26
-4136.99
-3013.75
-3994.6
-1065.23
-7929.48
-2408.27
2137.29
-210.062
-1483.02
-847.882
-309.962
27.0001
-2394.63
-1483.91
-926.237
-488.272
-2616.6
-1600.27
-1457.37
-630.481
-3002.05
-1949.93
-2153.66
-1017.74
-1677.9
-448.804
69.8437
577.666
-5729.23
-6053.38
-4568.54
-4193.08
-7883.06
-7856.45
-6631.28
-5567.79
-2969.15
-3127.36
-4174.31
-4626.62
-2934.15
-2506.99
-1431.44
-1268.69
-4387.47
-3468.61
-2348.97
-1877.42
-1751.75
-1787.1
-609.141
-861.718
-1882.35
-1146.88
-2450.98
-1537.21
-2678.9
-1824.14
-3621.87
-2402.59
-906.725
-515.549
-1331.56
-676.833
55.8384
246.774
-514.494
10.1487
-3285.02
-3853.6
-2446.93
-3355.34
-3302.49
-3940.62
-2506.91
-3351.91
-3591.25
-3793.7
-2670.19
-3208.43
-3459.14
-5667.73
-2779.12
-2135.79
-1846.29
-8268.15
-5726.62
-4850.92
-4430.57
-3744.4
-6674.29
-5373.89
-4235.34
-3543.25
-2329.72
-4269.39
-4025.31
-4883.67
-7374.54
-4167.91
-3723.21
-4720.37
-7072.66
-4037.92
-3671.35
-4403.23
-6593.94
-7813.42
-5969.89
-6682.43
-5000.57
-5391.04
-4151.2
-4901.29
-4249.94
-4148.95
-6103.4
-6326.71
-5898.75
-5055.83
-4905.62
-4128.52
-4144.2
-3718.68
-4144.76
-2799.13
-5209.75
-4173.7
-2984.97
-2975.47
-1329.32
-6289.92
-5431.21
-4920.75
-3761.93
-2128.82
-849.556
-3078.2
-2343.98
-3476.93
-1241.51
-702.066
-111.526
-4069.78
-2756.14
-942.942
-634.816
-2716.63
-816.455
-482.666
12.2358
-1634.19
-1500.18
-1466.86
-2616.56
-2428.12
-2495.58
-2020.69
-3572.59
-1888.48
-1055.84
-886.661
-1651.91
102.632
271.249
680.365
165.762
-2821.72
-831.226
-4871.02
-439.859
-2706.38
-919.434
-4768.42
-462.534
-2234.73
-612.786
-4350.24
-329.486
-3353.78
-827.359
-2856.76
-718.916
-2738.88
-843.634
-2480.15
-494.325
-4100.06
-477.495
-4414.93
-972.799
-3699.71
-664.309
-3320.72
-664.545
-3211.71
-476.741
-4310.04
-524.067
-640.363
-177.054
37.2045
167.944
-229.585
-59.6499
9.96563
48.1236
-649.501
-165.338
36.0398
148.061
-198.278
-28.2695
-10.2409
5.82411
-684.858
-153.669
14.7371
106.724
-168.579
50.9355
150.01
161.215
236.417
210.994
277.569
253.723
576.673
367.708
258.551
161.889
-387.336
-25.7239
157.198
279.296
-308.855
23.3084
99.3259
262.021
-725.413
-145.202
55.3085
199.793
-566.817
-55.7599
68.0391
322.676
-48.1205
103.042
176.93
228.604
-63.3532
98.3789
110.782
180.254
305.147
236.497
178.2
121.851
208.368
182.322
127.479
108.419
-957.38
-260.159
39.4522
280.826
-1131.65
-278.833
-63.1889
338.653
-928.937
-239.644
47.7621
287.088
-1094.06
-262.857
-62.0943
336.553
-880.247
-207.303
6.68588
230.37
-1007.04
-232.432
-87.8154
294.755
-615.968
-108.93
-8.00864
133.923
-1058.02
-220.909
-116.331
360.138
-572.134
-67.8446
11.9602
230.633
-1009.58
-204.119
-77.7916
225.598
-430.987
-76.3535
-6.45317
52.6911
-954.592
-185.465
-68.6823
227.212
-414.007
-70.4543
-6.53635
50.1518
-839.585
-147.38
-70.7327
217.556
-360.639
-54.3332
-0.757065
52.1009
-707.088
-112.41
-86.473
189.336
-303.709
-37.8626
-6.72073
46.8818
-546.188
-59.4793
-56.6875
158.108
-175.106
0.30427
-5.30329
43.3895
-287.881
22.2849
66.8443
163.802
12.5005
84.4046
64.8153
73.7592
-458.329
-35.8517
8.80645
161.166
-55.3301
47.8596
29.725
58.5285
-71.4943
89.9204
100.244
149.253
90.5898
117.838
91.4955
81.4902
158.918
155.684
110.212
104.107
184.231
149.902
99.9569
75.9365
34.2932
8.46786
2.72151
1.1583
0.67839
14.0797
3.9658
1.38373
0.612732
0.364014
38.149
11.5552
4.45504
2.08667
1.26514
20.5379
7.9636
3.49126
1.72035
1.06028
46.2524
15.893
6.70273
3.26104
2.00201
52.8506
22.9016
10.7434
5.42812
3.36962
60.2465
27.0366
12.8336
6.49234
4.02529
66.4689
33.2306
16.4179
8.40207
5.21844
56.4949
20.8901
9.25028
4.57612
2.8178
47.5633
18.3629
8.2922
4.12428
2.54367
50.8243
17.26
7.43532
3.65429
2.24999
40.3896
16.5395
7.78424
3.9389
2.44865
60.6737
24.1907
10.9848
5.46958
3.37207
47.6037
20.7047
9.72619
4.89657
3.02747
55.5296
27.1533
13.3268
6.80566
4.22382
46.0465
22.4604
10.9983
5.60958
3.47924
38.6056
7.75916
2.24369
0.911572
0.525543
18.237
3.19737
0.878061
0.351875
0.202368
40.2551
9.49874
3.27344
1.47199
0.881902
18.8007
3.81194
1.247
0.553793
0.331207
40.2577
11.1383
4.36017
2.07534
1.26768
19.3776
5.74721
2.43543
1.20395
0.745304
42.6611
14.9919
6.72318
3.37543
2.10044
24.6529
8.75753
4.03171
2.04409
1.27694
33.3192
15.8072
7.8127
4.03779
2.53131
-2182.47
-4214.54
-2276.27
-4245.36
-2531.96
-4315.13
-2828.96
-4469.24
-2769.05
-4512.17
-1192.85
-1739.54
-1870.8
-2815.16
-645.084
-872.952
-188.881
-258.272
-11039
-2651.14
-612.764
-138.334
-34.8518
-2988.29
-816.675
-218.955
-50.2852
-11.1045
-10824.9
-2583.63
-597.437
-133.898
-34.0078
-3049.39
-909.246
-226.006
-53.0635
-13.3537
-10190.4
-2424.17
-559.859
-125.533
-31.9625
-2953.75
-875.51
-217.115
-50.7547
-12.8266
-9181.57
-2173.21
-501.659
-112.589
-28.717
-2835.05
-824.702
-202.349
-46.9615
-11.82
-7588.42
-1790.29
-414.043
-93.1552
-23.8167
-2631.27
-748.554
-182.21
-42.1038
-10.5818
-3556.55
-874.554
-205.531
-46.5905
-11.9421
-1281.53
-367.961
-88.8135
-20.1818
-5.06513
-5319.61
-1291.55
-301.37
-67.9875
-17.3946
-1878.34
-535.384
-130.466
-30.1508
-7.63417
-2078.38
-514.78
-121.483
-27.667
-7.10556
-717.469
-212.934
-50.967
-11.558
-2.92428
-706.563
-173.781
-41.043
-9.36952
-2.40651
-268.009
-72.0198
-15.8136
-4.50806
-0.878906
-492.958
-1767.25
-6618.82
231.766
-7415.85
-3278.98
-7219.1
-3397.99
-13191
-7051.29
-14720
-7773.67
-88.3237
-297.278
-462.215
-545.73
-473.958
-94.9782
-146.912
-483.901
-738.024
-834.665
-681.882
-182.958
-71.3822
-72.2549
-229.382
-227.46
-324.684
-323.925
-305.123
-304.378
-255.101
-280.126
-144.093
-186.834
837.388
1994.14
3252.77
2313.42
2076.79
919.784
710.398
1940.23
3190.93
3746.37
3121.67
1347.71
-79.4373
-66.9237
-50.5293
-31.3916
-10.6406
-267.641
-225.772
-170.705
-106.177
-36.0148
-416.004
-350.801
-265.149
-164.881
-55.9195
-490.941
-413.762
-312.562
-194.279
-65.8743
-426.6
-359.71
-271.805
-168.952
-57.2828
-88.8324
-77.8215
-60.5716
-38.2613
-13.038
-131.977
-111.033
-83.7189
-51.9565
-17.6017
-435.103
-366.49
-276.696
-171.914
-58.2787
-663.105
-558.069
-421.013
-261.441
-88.6066
-748.961
-629.405
-474.196
-294.195
-99.6646
-611.085
-512.82
-385.882
-239.21
-81.0096
-165.575
-140.373
-106.502
-66.333
-22.5001
-64.2679
-54.2131
-40.9861
-25.4893
-8.64483
-65.0956
-54.9549
-41.5813
-25.8768
-8.77949
-206.675
-174.507
-132.067
-82.2047
-27.894
-204.991
-173.134
-131.065
-81.5989
-27.6918
-292.479
-246.89
-186.796
-116.246
-39.4403
-291.738
-246.205
-186.232
-115.872
-39.3094
-274.969
-232.205
-175.741
-109.383
-37.1135
-273.93
-230.965
-174.535
-108.508
-36.795
-230.233
-194.691
-147.469
-91.7995
-31.1418
-251.736
-211.855
-159.767
-99.1547
-33.5895
-131.65
-112.613
-85.953
-53.6447
-18.1906
-168.101
-141.562
-106.715
-66.1477
-22.3817
736.122
605.738
448.966
276.291
93.4799
1742.4
1427.16
1055.95
650.869
221.054
2801.62
2271.68
1675.78
1038.39
356.98
1975.63
1595.78
1179.36
734.294
253.388
1804.16
1461.1
1075.24
660.447
214.847
825.581
682.874
510.379
315.236
100.339
625.301
515.14
382.05
235.092
79.5023
1701.44
1397.64
1035.4
637.706
216.104
2776.22
2266.15
1674.08
1032.41
351.292
3232.68
2622.39
1932.91
1194.42
408.365
2691.14
2180.25
1606.33
992.772
338.377
1172.95
959.413
713.205
443.495
151.235
135.498
347.668
518.233
609.045
545.334
183.341
216.9
557.457
815.447
910.565
746.722
232.578
106.684
101.386
266.9
259.706
364.799
359.846
345.354
338.413
303.434
288.763
243.582
223.73
-724.551
-1825.41
-2966.94
-1947.11
-1665.12
-489.5
-665.084
-1871.86
-3045.29
-3491.86
-2763.71
-925.689
122.255
103.409
78.4099
48.8848
16.6031
313.401
264.791
200.543
124.91
42.4019
466.926
394.275
298.436
185.801
63.0567
548.569
463.038
350.353
218.061
73.9938
491.661
415.441
314.628
195.939
66.5042
169.295
146.658
113.388
71.5055
24.3884
195.537
165.232
125.168
77.9797
26.4748
501.956
423.551
320.377
199.361
67.6419
733.569
618.313
467.212
290.512
98.5316
818.158
688.692
519.762
322.92
109.482
670.295
563.65
425.028
263.928
89.4654
210.801
179.11
136.262
85.0847
28.9064
96.2968
81.492
61.8212
38.5565
13.0976
91.5214
77.4572
58.7645
36.6517
12.4509
240.733
203.534
154.254
96.1282
32.6403
234.264
198.084
150.136
93.5676
31.7718
328.929
277.992
210.598
131.198
44.54
324.392
274.084
207.58
129.289
43.8867
311.563
263.47
199.7
124.451
42.2557
304.928
257.49
194.896
121.33
41.1742
274.347
232.537
176.594
110.178
37.4261
260.133
219.586
166.128
103.374
35.0703
222.269
190.165
145.484
91.1334
30.9944
202.08
171.025
129.632
80.7287
27.3897
-633.777
-518.608
-382.471
-234.642
-79.3062
-1589.67
-1297.41
-957.198
-589.217
-200.143
-2540.86
-2047.94
-1503.82
-930.324
-320.283
-1629.97
-1288.56
-934.612
-575.202
-197.689
-1409.04
-1105.35
-787.705
-470.184
-146.583
-410.094
-306.358
-204.021
-111.214
-27.0289
-584.402
-480.525
-355.799
-218.74
-73.9566
-1640
-1345.89
-996.384
-613.548
-207.951
-2643.63
-2152.71
-1587.11
-977.801
-332.708
-2997.14
-2417.09
-1772.39
-1091.79
-372.963
-2355.88
-1884.47
-1372.11
-841.097
-285.455
-775.545
-606.808
-432.329
-260.622
-87.2124
-1693.86
-1073.32
-434.343
361.726
638.892
804.512
278.086
-11677.6
-2230.25
-3576.67
-1671.97
31.2244
-3885.06
571.375
2072.43
895.666
-6408.59
-3083.66
-861.602
-805.039
-3410.87
-1534.02
-463.769
-1137.21
1626.59
891.037
-657.37
-395.959
-8164.43
-3742.27
-4676.33
-2311.89
-3526.7
-3816.98
-1282.62
882.745
-674.536
-896.433
-580.929
-441.15
-431.212
-403.56
-702.758
-466.655
-309.064
-202.472
-92.8264
-367.61
-291.151
-209.997
-128.159
-43.637
327.544
278.008
211.283
131.838
44.793
574.213
483.095
363.991
225.608
76.3437
722.93
608.195
458.357
284.224
96.2143
255.384
218.997
166.863
103.549
34.8673
-7965.64
-6554.71
-5319.74
-4740.02
-4398.14
-1450.64
-920.321
-837.928
-789.3
-496.193
-2490.32
-1768.32
-1367.66
-1038.36
-563.073
-1072.47
-676.597
-546.971
-429.407
-177.662
45.3549
44.3109
27.7029
6.51481
-3.41702
-3160.64
-2493.33
-1829.98
-1180.23
-451.605
520.732
437.131
322.683
193.011
62.3452
1778.05
1429.32
1038.79
630.682
211.829
799.818
665.489
494.672
302.681
101.332
-4266.89
-3621.54
-2963.96
-2666.86
-2477.14
-2126.82
-1490.85
-1137.66
-836.832
-423.093
-686.301
-533.205
-404.491
-279.806
-114.774
-650.845
-504.776
-371.656
-242.37
-91.735
-2788.08
-2184.49
-1603.57
-1026.69
-384.183
-1274.82
-1004.83
-736.432
-466.189
-165.622
-374.868
-287.017
-205.473
-128.786
-46.3294
-969.158
-777.091
-569.697
-353.524
-122.111
1440.85
1192.92
885.859
543.392
182.758
801.857
673.926
505.687
311.408
104.688
-544.776
-428.321
-313.797
-199.069
-71.5466
-322.037
-248.231
-179.796
-114.256
-41.2896
-4886.54
-3244.32
-2580.4
-2240.33
-1910.22
-2684.45
-1943.46
-1396.84
-941.362
-413.062
-3083.61
-2307.82
-1705.29
-1258.56
-593.804
-1705.14
-1275.93
-916.97
-612.68
-267.165
-2904.35
-2280.91
-1668
-1055.38
-381.784
-2663.79
-1766.52
-1312.05
-937.689
-392.033
-1080.16
-857.325
-625.317
-388.834
-135.419
795.878
670.653
504.821
311.861
105.106
-541.489
-414.638
-301.314
-194.33
-71.8733
-3.30887
13.3157
34.001
28.9681
-33.6238
-161.544
-22909.4
-20274.3
-19126.1
-21760.9
-16879
-13426.5
-15054
-11480.6
-20134.9
-17851.8
-18581.5
-17641.5
-16365
-14017.4
-17259.8
-19010.1
-17044
-15496.3
-17431.9
-14388.8
-12208.8
-12715.3
-10224
-18206.7
-16395.8
-16812.4
-15498.8
-14623.3
-13634
-14221.2
-15079.5
-13857.3
-12352.4
-13490.2
-12072.9
-10415.1
-10677.4
-9168.59
-15367.8
-14217
-14330.8
-13317.6
-12519.4
-11572.4
-12102.7
-10668.8
-10058.5
-8786.69
-9311.12
-9055.56
-8148.38
-7982.56
-7275.79
-11250.7
-11440.2
-10632.7
-10807.9
-9527.56
-8645.2
-9641.94
-6880.89
-6587.23
-5680.84
-5926.56
-6100.52
-5539.96
-5290.74
-4877.79
-7498.06
-7547.84
-7169.09
-7093.5
-6553.27
-5942.47
-6468.86
-2487.3
-2401.49
-2059.57
-2132.71
-2259.38
-2109.8
-1942.86
-1808.96
-2830.95
-2855.23
-2661.91
-2574.32
-2463.12
-2263.36
-2436.81
-8489.95
-8349.96
-12846.7
-13848.2
-7953.36
-7055.63
-11269.9
-9168.94
-6372.86
-4508.87
-6344.08
-4529.79
-6352.72
-6124.54
-4668.14
-8419.96
-7988.89
-11466.8
-12492.1
-7415.04
-6697.99
-9984.41
-8574.23
-6306.63
-3831.37
-6210.46
-4097.84
-5674.29
-5493.19
-4551.65
-7620.74
-7256.55
-9718.1
-10419
-6806.85
-6308.63
-8693.31
-7667.78
-5133.53
-3957.94
-5124.38
-4250.33
-4770.47
-4807.87
-4506.65
-6060.96
-5824.61
-7264.84
-7635.77
-5519.82
-5141.47
-6714.31
-6104.47
-4740.83
-3408.59
-4669.2
-3697.14
-4359.66
-4360.23
-3881.87
-4126.52
-3990.44
-4786.83
-4973.87
-3714.01
-3424.42
-4502.46
-4121.12
-3250.28
-2534.46
-3188.73
-2723.45
-2985.59
-2957.79
-2697.83
-1524.79
-1476.92
-1745.82
-1805.03
-1370.47
-1256.61
-1653.29
-1520.18
-1063.67
-918.239
-1130.1
-1022.42
-1097.21
-1076.81
-976.514
8039.38
25931.1
6404.27
27124.9
4779.55
27935.6
7488.23
42672.6
9187.4
58563.8
9154.54
42877.7
8857.98
35705.7
9225.8
31309.7
5586.18
3533.14
14987
8977.5
5430.76
2948.19
16213.7
8054.6
6173.09
4580.26
19469.8
13985.2
4679.75
3485.09
19541.9
14463
11066.8
4710.11
9623.33
4337.77
4508.52
10446.7
37399.9
10049.8
13427.1
4399.9
47763.2
12834.5
12397.4
4100.15
26971
8313.54
13861
4749.39
23684.3
7484.64
7461.32
3700.25
10158
4020.33
8167.6
4398.56
10060
3928.41
10146.2
5825.43
8662.85
3836.63
12468.4
4537.27
4250.95
1501.04
14245
10067.5
8645.54
6403.23
15262.1
12606.3
8251.07
7127.89
8443.88
5873.73
12269.4
8479.42
5572.33
4123.37
2671.59
2199.67
5199.38
4478.99
2505.04
2440.66
5505.05
3690.06
2690.12
1739.68
7726.03
4257.57
5953.61
7042.25
10854.3
7760.5
8851.69
12235.8
4991.29
2404.33
3436.31
3970.74
2383.08
1013.2
1414.54
1442.31
10333.7
18510.4
6921.09
20555.5
12025.8
18036.9
8493.81
21362
13457.4
16196.3
10776.7
20592.1
14492.4
16375.9
11707.3
11503
12388
16461.1
16159.4
16721.6
17606.1
24981.3
13409.3
11059.5
10105.6
11430
17378.3
21655.7
19540.1
24969.3
24254.3
19793.8
18493.2
24527.4
23671
17086
16823.2
22865.6
22696
12177.4
9768.35
12232.4
10977
13795.7
12835.1
15230.4
15045.4
20755.7
21714.8
11302.6
10127.1
11493.3
11694.1
12335.2
13774.3
14101.6
16508.3
18270.2
21880.4
9534.29
7527.04
6404.08
7995.71
12237.9
14579.6
8348.6
12996.8
5672.7
7268.43
8630.19
7194.85
1627.63
5226.14
697.566
1784.3
4183.13
8592.91
1404.29
2864.87
958.173
4596.9
394.585
1541.7
5706.23
5758.38
6521.88
4215.8
9168.72
7483.5
10791
7696.45
1508.43
3135.56
3245.34
1948.09
1689.56
2165.36
2378.92
1805.16
15769.6
9675.21
3101.21
17721.5
10303.5
3394.96
15108.9
9555.8
3270.15
17363.6
10286.3
3388.8
13885.2
8795.85
2916.82
16852.8
10290.2
3453.97
6745.32
3911.59
1145.87
9114.87
6084.73
2097.66
11213.3
7729.57
2668.45
13186.6
8642.26
2889.05
16616.8
10508.5
3665.88
7789.49
4648.92
1565.98
8891
6469.89
2464.5
10849
8010.9
2975.92
13450.6
9495.21
3431.56
16852.3
10705.6
3835.85
286.798
2049.58
2876.55
4167.47
2346.43
2657.26
5845.72
5510.54
580.788
971.408
618.498
1007.01
463.805
1357.57
840.582
1782.74
3120.24
1536.43
3998.78
2335
2082.54
3600.61
3380.12
610.902
6416.86
1315.71
-2322.44
243.578
1554.02
954.489
926.395
650.927
9351.89
4003.58
2519.26
1474.54
9480.67
4143.41
3194.51
1871.68
9376.27
4431.32
4562.57
2997.64
3184.84
2150.39
1262.98
1209.69
12949.2
11407.5
6003.1
6180.56
14454.8
13478.7
7056.51
7059.23
5102.24
5204.81
10736.2
8828.39
3440.31
3620.68
1718.65
2062.52
4220.93
4188.5
2119.57
2332.15
2830.93
3102.79
1380.47
1876.53
4346.41
2797.7
4266.41
2754.74
6917.6
3717.1
6454.15
3857.6
2468.24
1956.84
2627.35
1725.16
1181.1
1108.26
1588.56
954.369
10842.1
6957.54
5086.05
4805.19
10790.5
7228.39
5093.49
4788.48
11335
7748.27
5167.05
4703.03
14220.8
15954.2
12485.8
7973.43
4109.65
15134.7
13373.8
11864.8
9307.83
5391.18
14127.7
12259
9395.58
6856.63
3857.21
5375.27
4399.96
4722.07
4979.73
5726.46
4481.35
4849.86
5010.09
6286.54
4766.64
5031.23
5099.72
11411.4
8153.68
10078.5
6964.1
7496.16
5884.75
6570.54
5353.77
4759.99
5182.6
9510.61
8309.4
7996.79
6908.62
6445.71
5696.01
5267.41
4995.69
3699.67
4911.48
7127.25
4859.19
4685.1
2900.94
9718.71
7515.47
6665.6
5455.1
3621.02
2191.28
5303.69
3856.17
4599.18
2203.64
1547.14
871.59
5065.37
3711.82
1623.67
1358.16
3807.13
1677.99
1382.91
699.226
2751.69
2413.82
2139.01
3009.5
3875.09
3471.17
2725.63
3813.68
2820.74
1716.85
1571.81
2064.08
747.929
329.83
14.4537
292.579
2941.2
1238.11
366.809
3223.67
866.482
232.745
3086.71
1380.9
425.001
3280.03
917.878
259.205
3102.85
1474.71
393.557
3335.62
971.792
236.286
5210.66
2802.29
715.4
4276.38
2158.59
561.037
3782.11
1861.59
525.317
3393.02
1608.82
373.568
3420.1
989.698
167.85
6353.16
3354.61
979.335
5249.59
2665.85
766.755
4384.92
2191.84
649.839
3773.43
1662.76
432.043
3728.85
948.665
239.392
1460.41
499.076
117.483
-71.7237
605.445
215.503
62.3313
-9.17826
1541.97
541.907
151.531
-33.0992
765.378
291.79
135.654
59.1052
1636.63
590.749
212.72
32.3124
1265.35
528.904
172.816
29.9496
903.838
446.347
101.233
-34.147
762.089
441.68
204.903
98.9111
1302.74
527.081
137.851
-90.6524
1085.29
431.607
173.042
-76.8013
1571.97
571.808
186.159
-37.8474
1390.98
504.867
196.282
-121.803
995.65
455.728
147.869
-34.9972
797.814
356.234
168.277
2.01255
672.298
362.722
178.826
91.3961
506.971
273.24
158.349
78.192
1833.14
605.723
134.192
-152.117
1756.41
554.06
189.039
-200.962
1826.4
610.069
144.209
-145.61
1701.25
536.899
191.601
-195.817
1784.37
604.836
194.849
-88.2096
1594.49
505.617
218.688
-150.241
1556.68
549.433
240.837
29.7136
1746.17
559.501
290.356
-171.121
1363.57
480.105
229.504
-29.6128
1341.31
386.058
160.603
-124.292
522.685
139.477
43.5838
-19.6608
1395.6
410.153
170.632
-116.509
548.221
149.949
51.6515
-11.7847
1447
439.354
197.579
-97.5826
571.034
163.211
61.3968
-3.45407
1315.94
411.624
217.999
-70.1572
563.733
167.994
79.4505
11.2836
1208
402.246
221.308
-30.1755
513.301
174.337
101.076
29.7656
805.412
296.931
130.834
-12.2649
466.34
205.254
106.787
49.0335
954.261
319.526
156.507
-26.5555
485.786
190.112
105.753
40.6747
622.302
265.851
124.11
14.7556
393.49
198.355
103.343
56.4988
405.645
218.277
126.631
65.4357
298.807
179.159
105.229
68.2672
-6.07617
2.1069
1.89863
1.09821
0.699097
-0.671894
1.45931
1.05367
0.588731
0.371463
4.80225
6.91616
4.13353
2.2041
1.37304
10.991
6.83574
3.60707
1.86284
1.15013
15.1629
12.1634
6.68481
3.49161
2.16357
40.1107
22.6188
11.4981
5.8787
3.62313
45.2862
25.78
13.2118
6.80036
4.20961
65.6374