/*--------------------------------*- C++ -*----------------------------------*\
  =========                 |
  \\      /  F ield         | OpenFOAM: The Open Source CFD Toolbox
   \\    /   O peration     | Website:  https://openfoam.org
    \\  /    A nd           | Version:  11
     \\/     M anipulation  |
\*---------------------------------------------------------------------------*/
FoamFile
{
    format      ascii;
    class       volScalarField;
    location    "1.2";
    object      gradTx;
}
// * * * * * * * * * * * * * * * * * * * * * * * * * * * * * * * * * * * * * //

dimensions      [0 -1 0 1 0 0 0];

internalField   nonuniform List<scalar> 
5712
(
-7328.5
-9368.95
-17282.8
-25338.3
-25903.4
-44631.6
-19794.4
-50306.1
-16046.8
-35238
-24000.5
-36561.3
-21459.2
-28268.7
-9463.05
-10855.1
-16604.2
-19065.9
-21260.5
-21101.5
-16640.8
-20469.3
-24425.4
-21870.1
-6041.47
-4626.05
-7496.88
-5116.91
-14060
-11413.4
-23861.5
-17472
-18432.6
-19246.4
-20681.5
-20060.3
-7524.07
-5751.99
-43267.8
-57930.1
-28043.8
-34402.3
-57739.7
-75015.9
-29914.1
-34264.5
-32302.9
-45616.5
-28318.5
-37452.9
-16710.2
-26789.5
-3295.36
-1119.49
-3451.91
-1252.59
-9923.18
-4034.94
-13491.5
-5004.08
-9772.08
-3722.93
-10161.3
-3277.07
-17197.8
-5500.96
-22162.5
-7517.12
-26344.1
-13247.9
-24131.8
-14291.8
-24405.6
-15814.8
-21497.8
-16000.2
-19255.3
-11491.2
-19335.7
-10013.1
-24928.4
-15793.1
-25005.4
-15902.3
-22737.7
-16849.7
-23018
-16876.6
-20769.7
-13150.5
-21508.9
-13445.4
-19810.5
-8717.9
-9307
-11518.4
-19874.2
-9579.03
-8232.89
-11831.4
-20958.5
-8631.22
-10462.6
-11510.9
-22002.4
-8823.59
-11336
-11975.3
-4261.01
-4676.45
-1453.73
-2954.76
-12357.7
-13100.4
-4896.57
-8977.71
-15838.2
-17445.4
-7977.25
-13707.5
-12262.2
-463.553
-14378.7
-18377.4
-10337.6
-96.0115
-7013.44
-13236.5
-21672.8
-16128.3
-10877
-13476.3
-12160.7
-10826.6
-17148.7
-3985.87
-3201.79
-2311.38
-2272.37
-11116.7
-9092.41
-6937.59
-6541.56
-13727.3
-11132.5
-9051.85
-8024.74
-5583.68
-7282.08
-11814.9
-12422.6
-14913.5
-13488.8
-16908.8
-14435.7
-12174
-10261.5
-9383.87
-9434
-12515
-9212.98
-11641.6
-7851.09
-10313.6
-6594.73
-12522.1
-7978.29
-10574.2
-4141.72
-9262.53
-9585.51
-12925.9
-16331.8
-14293.2
-20423.8
-7507.61
-7903.03
-9471.2
-2113.96
-8323.74
-15606.7
-7926.96
-16865.7
-14187.1
-25313.7
-14440.1
-27014.2
-6466.7
-13668.3
-5939.94
-14698.8
-9041.73
-6423.96
-12834.1
-4765.43
-9021.15
-857.656
-11038.7
47.5466
-8787.91
-9975.98
-13491.2
-6075.71
-7353.24
-11878.8
-12024.5
-8052.68
-2436.13
-2076.49
-1743.77
-1770.43
-1573.05
-1341.37
-7094.66
-5456.1
-4459.82
-4720.62
-3533.34
-2892.24
-8334.9
-6770.06
-6064.42
-5620.55
-4242.98
-3858.11
-6095.69
-4997
-4730.62
-10555.9
-7348.71
-5897.49
-10396.5
-7033.05
-5361.1
-10816.1
-7918.78
-6599.73
-7362.38
-4467.45
-3283.41
-15138.8
-12206.5
-9973.64
-10137.7
-7841.74
-6024.62
-9463.37
-6770.89
-4927.32
-8324.1
-5529.08
-3832.78
-9179.6
-4814.17
-2437.59
-10963.4
-14708.4
-8792.51
-11209.2
-12138.5
-17637.9
-10950.4
-15697.2
-11.516
-702.59
517.264
-127.742
-3017.26
-3317.29
-1319.44
-730.142
-831.379
-2514.34
-9714.76
-14012.7
-6670.07
-3854.3
-10520.9
-10450
-16514.1
-18200
562.233
4297.87
-7883.91
-7387.14
-7436.05
-5711.4
-1021.88
-532.57
-720.243
-325.502
-1988.78
-151.659
259.114
772.659
-9292.15
-2248.88
-6441.6
-1641.1
-9268.43
-2773.58
-11166.9
-3475.67
-9364.39
-12177
-8586.3
-11825.5
-15285.8
-15819.3
-14508.3
-14900.8
-5737.68
-9197.67
-6665.57
-9169.55
-9064.77
-11357
-9945.87
-11419.9
-15089.2
-14588.8
-15764
-14597.8
-5759.61
-8865.03
-6219.79
-8973.6
334.649
-979.444
-6835.85
-3791.23
830.452
-598.052
-6334.99
-3329.51
-104.105
-1241.63
-6960.8
-4137.45
-500.212
-1469.96
-6943.19
-4243.27
685.085
778.629
-140.349
31.3259
2861.44
2835.76
276.138
482.995
676.366
1952.87
-1368.16
-674.664
10104.6
9933.82
5403.32
4183.87
628.466
10790.6
10617.5
4091.76
6030.78
1035.16
-10806
-8238.22
-6922.93
-6113.48
-3267.8
731.716
625.329
84.0257
26.8848
2340.42
2110.15
278.01
119.856
2379.99
2644.77
-335.693
-479.421
5042.06
1990.18
7722.86
4463.81
3328.23
2309.75
3774.5
3048.21
-33.4743
-710.784
-3964.95
-2467.5
-1188.64
789.601
-932.621
658.843
-1307.96
-110.009
-1332.62
-1438.7
-5142.7
-4569.54
-9729.45
-5802.29
-8261.79
-8054.63
-12484.4
-9957.67
-7271.31
-4139.13
-3574.17
-3422.48
-11466.7
-5013.25
-12582.2
-5609.03
-13915.5
-10175.7
-14829.7
-10945.3
-8860.26
-3347.92
-9902.36
-3878.63
-5227.75
-3856.32
-3416.11
-4950.28
-3260.32
-3494.88
-2867.49
-4573.68
-6076.93
-3753.26
-3871.69
-5694.91
-7475.26
-4065.99
-5056.7
-5852.88
566.408
558.158
607.879
48.478
197.729
213.428
2055.8
2031.83
1967.95
228.195
566.647
550.065
2681.16
2758.96
2721.15
-293.84
562.846
722.293
905.031
747.429
449.682
2911.7
2868.68
2594.32
2308.98
2482.75
2381.69
2880.07
2882.1
2719.39
-810.923
257.24
327.379
-3579.29
-2050.81
-1138.46
546.373
1389.85
1823.83
601.531
1602.05
2014.93
299.097
1327.09
1603.34
-1510.45
335.894
543.755
23.5112
23.1193
23.3174
33.6088
213.519
103.672
75.9572
62.4602
11.6821
41.4807
100.704
135.719
340.28
182.616
193.198
175.264
-173.336
0.177521
147.07
250.725
106.434
129.516
153.862
155.125
-0.194558
70.2578
58.9359
52.6397
-190.399
-24.9292
60.1884
94.9448
-757.35
-176.152
6.22506
115.758
-1136.86
-275.762
-62.7775
219.315
-506.738
-84.0565
72.8543
206.608
-925.379
-210.231
-72.1366
183.289
-813.095
-204.161
33.7477
167.571
-1277.87
-325.44
-68.2203
263.241
-897.744
-252.843
36.0444
209.46
-1373.21
-366.893
-82.7791
273.889
13.1836
14.0499
21.7951
44.2166
40.9781
23.416
10.4107
39.5463
76.5034
52.0826
76.061
125.017
161.018
80.5531
38.3142
108.934
-294.389
-51.5184
66.8273
204.853
-104.438
15.4132
38.819
189.581
-21.8302
77.3831
120.28
213.804
28.5607
68.0801
29.5559
190.157
-779.483
-161.348
-43.8709
260.254
74.9477
34.0025
18.7062
32.6128
130.861
50.2288
22.5868
16.6471
160.414
80.7195
35.7335
80.6769
338.243
133.917
55.0024
41.8363
117.527
88.8162
45.3394
130.323
440.458
188.522
81.9977
64.785
-22.2473
78.7443
55.0174
181.935
373.038
203.105
94.6081
80.032
-368.852
4.12862
-3.59301
162.054
155.759
172.058
78.9364
77.5382
-896.094
-113.132
-29.8515
180.17
-270.357
29.361
35.6151
63.0882
-670.059
-41.6799
-18.8373
166.55
-126.309
93.4156
59.1566
73.2843
-1094.16
-190.625
-51.6747
195.855
-390.036
-27.4953
17.0465
57.0899
-1235.1
-260.149
-78.0674
190.935
-489.738
-81.4248
-4.90937
47.9586
14.5731
5.56946
2.36644
1.11942
0.66815
19.138
8.28229
3.76647
1.83685
1.11022
34.8036
12.8257
5.40674
2.55715
1.52758
42.2399
18.1966
8.29365
4.05991
2.46027
46.0807
15.9816
6.63675
3.13022
1.86971
55.6803
23.7886
10.849
5.32337
3.23117
28.2031
11.9189
5.42916
2.67311
1.62788
20.6854
7.18112
2.96106
1.4027
0.84346
44.4934
15.943
6.75633
3.2248
1.93754
21.3804
6.64401
2.65412
1.24011
0.739332
47.5822
18.3829
8.13907
3.94974
2.38614
20.4747
6.63714
2.72935
1.28709
0.769446
34.4329
10.5585
4.13734
1.91766
1.14177
20.2491
5.8748
2.28864
1.06419
0.635093
31.0708
7.25091
2.29475
0.953626
0.544069
17.2234
3.49545
1.01791
0.407168
0.229026
12.3833
4.33729
1.78469
0.832439
0.493734
9.1973
3.47137
1.48759
0.704594
0.419898
30.4946
10.753
4.5091
2.12818
1.26964
23.8695
9.03585
3.92466
1.87484
1.12254
42.4677
13.3068
5.36494
2.5012
1.48726
32.2225
12.2833
5.40779
2.60432
1.56647
37.5323
14.3655
6.39605
3.10189
1.87098
21.8576
9.16916
4.17669
2.03774
1.23193
19.0296
7.70481
3.50463
1.71035
1.03378
-193.626
-376.098
-337.775
-887.351
-118.618
-1044.38
609.085
-666.932
1335.72
467.535
-469.191
-1076.95
909.6
799.27
-1120.11
-1912.34
-1550.11
-2274.98
-790.06
-187.112
-42.7469
-9.56979
-2.43704
-214.451
-112.355
-15.343
-4.28379
-1.98064
-2424.01
-570.811
-130.851
-29.1493
-7.4343
-494.961
-144.436
-36.8472
-7.93877
-2.23117
-4042.61
-953.658
-219.281
-49.0349
-12.4848
-809.656
-251.079
-63.2556
-15.1456
-3.91185
-5357.9
-1267.68
-292.871
-65.742
-16.7728
-942.75
-317.095
-82.3689
-19.9021
-5.11866
-6592.62
-1575.67
-366.839
-82.8365
-21.2445
-1049.31
-389.018
-103.768
-25.3415
-6.58868
-7601.12
-1872.53
-442.567
-100.966
-26.0686
-1782.21
-561.638
-141.73
-33.2436
-8.51817
-7158.31
-1758.64
-413.667
-93.9092
-24.1453
-1312.72
-464.654
-121.862
-29.2837
-7.52702
-7781.1
-1918.16
-454.247
-103.841
-26.8702
-2064.39
-623.882
-154.61
-35.6909
-9.1119
-8080.65
-1974.26
-468.133
-106.984
-27.6766
-2162.02
-653.471
-163.135
-35.0163
-9.44183
-586.626
-7621.25
-6960.21
-2473.92
1738.78
2943.79
8167.76
11980.8
1743.27
8743.79
-2045.11
2452.8
2495.62
5137.59
9890.78
14082.9
14961.2
18850.6
6113.6
7934.17
-20115.8
-14319.6
-3887.82
-2776.24
-1962.07
-2719.94
-2733.45
-12035.4
-10714.5
-9393.56
-9542.14
-7457.14
-5423.38
-7390.02
-4534.75
-3842.45
-4532.17
-3106.87
-19646
-9702.56
-3070.28
-5361.54
-7757.11
-5247.94
-5496.16
-4000.59
-2271.83
-3177.19
-3570.94
-3899.11
-19699.2
-12627.3
-11858.8
-8395.87
-8064.75
-8726.38
-3295.39
-4203.29
-5767.47
-13769.7
-11342.7
-8926.44
-7568.59
-5904.71
-9119.19
-6089.2
-4474.42
-3178.91
-1507.32
-3392.56
-2772.55
-2044.95
-1256.53
-426.083
-2458.87
-2037.43
-1516.4
-933.678
-315.458
-1728.89
-1423.09
-1051.43
-643.268
-216.484
-2415.64
-2005.98
-1494.17
-919.293
-310.15
-2404.24
-1976.68
-1460.7
-894.973
-301.731
-7469.41
-5442.6
-3987.8
-3366
-3286.93
-5654.55
-3957.59
-2640.17
-2035.16
-1342.04
-5826.89
-3496.12
-2336.56
-1524.92
-682.441
-4817.02
-3134.7
-1988.14
-1348.36
-742.355
-3443.68
-2099.1
-1258.42
-812.947
-374.778
-4238.05
-3115.29
-2110.26
-1235.88
-418.28
-5014.62
-3228.06
-2080.88
-1213.92
-437.724
-2963.46
-1786.03
-1069.13
-574.395
-190.422
-3130.81
-2382.59
-1650.46
-972.126
-324.45
-3578.89
-2637.82
-1772.74
-1018.75
-335.148
-2561.18
-1967.9
-1369.95
-805.897
-267.125
-12587
-9176.83
-6954.84
-5652.53
-4856.54
-7010.89
-4969.38
-3505.08
-2262.72
-959.111
-2522.03
-1941.47
-1364.53
-816.953
-277.648
-4474.7
-3509.51
-2515.31
-1533.05
-529.105
-6247.99
-4794.61
-3425.72
-2131.91
-781.17
-4396.27
-3470.64
-2510.49
-1546.01
-538.128
-4684.99
-3754.17
-2739.48
-1686.6
-580.455
-3436.9
-2764.71
-2013.77
-1229.81
-417.455
-1939.35
-1543.1
-1106.66
-663.954
-221.792
-2770.67
-2256.34
-1652.76
-1006.47
-338.473
-3002.65
-2357.93
-1677.8
-1006.09
-338.2
-3336.06
-2669.61
-1933.08
-1174.13
-397.144
-13213
-10429.6
-8164.78
-6660.67
-5229.65
-8578.44
-5980.23
-4381.47
-3035.08
-1435.3
-8509.36
-6516.83
-4713.7
-3255.37
-1479.92
-6469.92
-4782.61
-3462.32
-2247.07
-876.113
-6603.52
-5154.86
-3735.62
-2345.3
-854.984
-6672.53
-4902
-3527.93
-2279.18
-877.045
-2783.84
-2207.4
-1595
-975.393
-334.85
-3664.71
-2987.29
-2194.03
-1341.31
-452.668
-4892.4
-3896.4
-2826.29
-1731.84
-593.886
-6261.91
-12829.2
-13204.7
-36513
-12874.2
-48375.7
-7083.89
-17263.8
-12881.7
-9885.93
-21643.8
-17943.6
-12681.3
-11746.2
-24048.7
-18820.4
-4633.99
-3466.56
-9054.87
-6278.22
-10363.3
-7829.7
-28073.4
-20895.4
-16975.5
-12748
-17515.8
-10368.2
-1253.47
-4239.3
-45087.1
-58703.7
-27133.1
-34271.4
-59085.8
-75598.7
-28885.4
-34022.8
-33809.9
-46402
-27500
-37437.5
-18531.9
-27678.3
-2253.41
-599.754
-3987.77
-1365.5
-7663.37
-3463.48
-15610.6
-5665.66
-3331.36
-1920.91
-8349.76
-2642.08
-17271
-5450.79
-22396.5
-7581.76
-17837.5
-9378.45
-20819
-12340
-15927.3
-11501.9
-18167.1
-13950.9
-16917.9
-9926.39
-13305.1
-7012.19
-23667.3
-14926.2
-24695.5
-15667.5
-21414.9
-15960.9
-22664.5
-16636.7
-19936.4
-12440.2
-21319.4
-13251.1
-18757.3
-8408.57
-8275.49
-11113
-16751
-8640.74
-6290.45
-11050.3
-20726.1
-8568.88
-9991.16
-11322.7
-21995.5
-8825.57
-11206.8
-11923.2
-1292.21
-1191.52
-327.928
-1491.75
-5260.03
-5522.77
-3377.26
-6865.26
-3088.85
-3846.48
-5347.59
-10187.4
-12507.6
-9559.25
-10156.1
-12984.5
-8877.1
-7410.05
-8224.08
-7721.06
-15139.7
-13914.8
-12464.9
-10823.2
-7852.75
-6967.13
-15219.9
-1299.47
-969.154
-746.088
-840.474
-4929.18
-3873.46
-4269.55
-3769.44
-860.111
409.343
-5086.12
-4008.4
-10081.2
-10718.9
-9502.37
-8764.84
-7593.22
-5518.82
-10102.4
-7993
-9614.83
-7528.13
-11850.5
-11734.1
-10375
-7697.23
-7893.66
-5021.6
-7185.9
-4281.58
-11166.1
-6628.82
-9545.29
-4669.09
-8598.63
-9543.68
-13266.1
-17388.9
-14045.4
-20420.6
-6772.19
-7785.77
-8106.65
-2443.01
-8017.28
-15481.1
-7838.82
-16810.9
-13980
-25375
-14367.5
-26983.4
-6141.25
-13543.5
-5849.8
-14653.3
-8555.55
-6420.62
-12696.1
-4903.99
-8082.6
-1396.82
-10888.9
-884.941
-8575.46
-9920.07
-13426.9
-6101.29
-7289.19
-11854.8
-12003.5
-8050.74
-935.657
-863.69
-672.283
-773.822
-2943.71
-2163.22
-2741.35
-2502.31
1007.34
424.905
-3197.06
-3498.67
-10532.1
-9804.01
-7859.29
-6583.35
-4411.53
-3607.9
-6303.5
-5133.98
-6352.97
-4589.57
-18126.6
-15428.8
-8212.6
-6637.99
-6545.31
-4649.95
-5639.21
-3343.07
-6277.03
-2475.52
-5657.26
-9312.84
-4878.56
-9575.14
-8803.61
-10852.8
-9964.45
-13557.8
-936.581
-624.577
-639.328
-505.887
-3544.13
-2374.37
-2771.26
-1347.53
-1060.32
-1447.17
-8251.42
-8790.2
-4415.2
-3889.4
-9679.95
-10201.4
-15420.4
-17870.3
584.273
4233.4
-7306.17
-7225.3
-7110.66
-5651.14
-964.511
-841.021
-1028.61
-823.003
-1496.58
-865.867
-318.101
-206.304
-7756.32
-3250.09
-6568.58
-2672.71
-9180.76
-3360.74
-11124.3
-3703.89
-5311.93
-10234.9
-7069.27
-10753.4
-8970.71
-12121.1
-12001.4
-13157.9
-5022.23
-8807.21
-4456.28
-8737.08
-8371.87
-10879.8
-9733.34
-11288.6
-14000.2
-13839.1
-15447.9
-14394.1
-5454.12
-8684.61
-6126.17
-8925.79
21.937
-1535.48
-7052.95
-4243.83
49.6035
-1573.13
-6966.12
-4046.75
-324.804
-1621.64
-7060.92
-4403.47
-587.118
-1619.9
-6969.8
-4332.65
-959.82
-1029.38
-862.677
-894.829
-1817.05
-1817.94
-1092.91
-1130.48
-7839.94
-7043.9
-3213.89
-3111.37
-3358.55
-4821.99
-3655.7
222.755
-1167.8
-898.583
-1121.92
-3495.9
2816.29
-296.35
-14366.9
-11743.7
-10059
-8222.45
-4539.15
-1013.41
-879.366
-978.65
-1154.21
-1770.36
-1366.71
-1437.24
-1877.87
-7175.54
-6853.87
-3394.31
-4238.94
-4797.84
-6518.71
-2842.44
-4771.68
-4441.93
-4794.31
-699.502
-1108.53
-1960.74
-2994.2
-9637.38
-7727.1
-7283.06
-5204.64
-5976.51
-4163.37
-4870.31
-3381.24
-3042.29
-3224.91
-7827.56
-7609.01
-10685.7
-6821.61
-10276.2
-10829.8
-12952.9
-10801.2
-8459
-5099.59
-6102.27
-5979.79
-11772.9
-5606.58
-12646.8
-5741.39
-13951.8
-10670.2
-14814.6
-11037
-9353.74
-3920.19
-10030.2
-4021.44
-6338.85
-4680.3
-4353.34
-5819.04
-5329.65
-5460.82
-4295.72
-6083.42
-6622.66
-4271.56
-4381.74
-6227.78
-7637.76
-4221.03
-5217
-6000.02
-674.218
-589.197
-827.411
-639.62
-1199.74
-1449.36
-1176.16
-934.36
-6543.83
-5728.03
-2767.36
-1274.69
-7604.31
-7090.79
-5740.73
-5071.12
-4581.33
-3922.46
-1497.55
-1594.02
-2845.84
-1359.16
-8396.18
-7044.75
-4609.35
-3697.44
-3408.24
-2330.71
-2294.2
-1204.72
-2920.89
-92.6353
-157.899
-66.9715
-23.0813
9.85995
-122.452
-70.8106
-12.6501
16.4934
-433.796
-178.259
1.4233
90.5326
-340.728
-180.554
14.6368
82.9161
-736.867
-274.962
29.5267
209.24
-676.244
-299.719
-78.5194
21.4982
-479.336
-203.824
-93.6025
-28.5595
-395.23
-146.879
-7.94649
57.6324
-1150.76
-384.976
-112.453
43.2755
-1373.01
-386.523
-118.669
208.213
-1083.01
-358.579
-67.4164
128.222
-1237.9
-343.964
-136.205
179.347
-1091.81
-360.599
-50.2285
126.323
-1432.98
-403.194
-111.136
249.003
-1010.15
-318.139
0.601119
191.625
-1429.05
-396.086
-99.1034
268.535
-151.346
-57.4367
-9.9315
32.6222
-129.574
-43.0779
-21.3716
29.2429
-387.662
-147.892
-10.0401
90.6531
-322.475
-110.691
-51.5911
77.7383
-799.273
-266.29
-21.1958
181.577
-719.101
-226.424
-73.0995
158.713
-867.088
-292.138
-46.344
145.805
-655.554
-205.804
-88.8392
175.994
-1237.53
-338.904
-122.663
273.606
-93.8854
-31.3301
-8.96523
21.3372
-42.9136
-19.7145
-6.59026
1.31626
-283.709
-91.4886
-42.6367
47.0499
-140.815
-59.1982
-27.9033
-1.42942
-508.536
-155.026
-67.0402
83.3274
-285.122
-105.314
-43.1116
0.201653
-776.189
-224.532
-83.3306
129.53
-498.664
-157.632
-57.8352
2.66188
-1027.95
-275.195
-144.14
97.8156
-668.989
-191.291
-83.5215
-8.93579
-1372.89
-360.299
-159.573
119.474
-667.606
-184.885
-73.8708
1.45187
-1316.46
-347.606
-174.675
94.2454
-734.258
-201.998
-82.5624
-6.01194
-1372.27
-343.355
-134.043
158.209
-608.757
-155.847
-50.0683
20.6238
-1324.05
-310.663
-105.716
178.242
-555.728
-121.923
-26.4823
36.2735
0.115416
-2.27849
-1.58332
-0.902815
-0.583745
-6.88306
-5.13201
-2.88816
-1.5579
-0.989908
1.26189
-5.2969
-3.6941
-2.10021
-1.35577
-15.4822
-11.6176
-6.51912
-3.50417
-2.22195
5.04654
-6.33381
-4.5632
-2.60043
-1.67835
-21.2809
-15.6111
-8.67999
-4.64514
-2.93977
-11.0486
-8.03448
-4.46164
-2.38058
-1.50285
0.695646
-3.0235
-2.10951
-1.19202
-0.765338
-1.14704
-7.51436
-4.88692
-2.72063
-1.74317
4.32069
-2.26242
-1.78184
-1.02747
-0.665102
-10.7901
-11.0314
-6.34138
-3.42274
-2.17342
2.19828
-2.75249
-1.91904
-1.08313
-0.69699
8.23993
-3.0763
-2.66288
-1.56209
-1.01454
5.45936
-1.77077
-1.51128
-0.878723
-0.568992
19.2203
1.05066
-0.805158
-0.634857
-0.440723
12.3253
0.916774
-0.271305
-0.253333
-0.180317
2.07129
-1.43486
-1.12452
-0.655479
-0.426657
-0.651581
-1.59408
-1.00364
-0.559641
-0.360142
2.1207
-4.49247
-3.08173
-1.74116
-1.12205
-3.63737
-4.78782
-2.82986
-1.54767
-0.988784
10.42
-4.46888
-3.53627
-2.04426
-1.32429
-7.4218
-7.28358
-4.11556
-2.2196
-1.41026
-10.2095
-9.20485
-5.10977
-2.73822
-1.73688
-10.925
-6.47344
-3.38302
-1.78648
-1.12769
-8.69772
-5.58925
-2.95065
-1.56322
-0.988435
1.02609
-187.602
82.0343
-463.057
276.174
-609.378
711.103
-462.983
1068.1
241.179
-622.6
-1237.94
544.523
296.84
-1178.54
-1962.19
-1563.09
-2284.14
-738.712
-177.511
-40.8262
-9.18093
-2.3474
-180.412
-105.064
-14.5817
-4.13674
-1.91272
-2280.02
-543.18
-125.245
-28.0156
-7.17192
-424.86
-134.746
-35.4563
-7.77484
-2.19952
-3827.39
-911.242
-210.579
-47.263
-12.0751
-742.624
-241.152
-61.7571
-14.897
-3.86561
-5123.92
-1219.44
-282.755
-63.6553
-16.2874
-930.605
-314.4
-81.8054
-19.7673
-5.08992
-6396.36
-1530.67
-356.906
-80.729
-20.7459
-1112.05
-395.558
-104.348
-25.3457
-6.57746
-7535.09
-1852.13
-437.331
-99.7514
-25.7636
-1818.53
-567.175
-142.467
-33.3225
-8.52382
-7044.65
-1725.95
-405.787
-92.1614
-23.7217
-1394.46
-474.802
-123.079
-29.4038
-7.53876
-7748.81
-1907.66
-451.408
-103.158
-26.6934
-2074.62
-625.463
-154.797
-35.704
-9.11017
-8070.91
-1971.03
-467.232
-106.762
-27.6184
-2163.05
-653.55
-163.12
-35.0134
-9.43964
-506.525
-7477.05
-6522.95
-2196.74
-1612.68
-860.244
-3760.6
-2571.1
-6862.68
-6355.16
-3308.31
-2437.28
-220.531
-353.64
-633.895
-1075.62
-1691.09
-2458.74
-164.048
-369.097
-794.271
-1439.35
-2272.04
-3209.36
-164.417
-75.3755
-294.226
-197.93
-563.657
-457.879
-983.703
-896.628
-1485.45
-1399.34
-2068.1
-1817.67
-3222.71
-3847.13
-4419.4
-7002.3
-8176.15
-9208.04
-4096.82
-4726.93
-4912.7
-4672.93
-4168.96
-3767.14
-198.694
-167.764
-126.965
-79.0311
-26.8181
-318.276
-268.381
-202.846
-126.135
-42.7788
-569.748
-479.682
-361.996
-224.84
-76.2087
-965.025
-810.785
-610.66
-378.746
-128.284
-1513.16
-1267.53
-952.092
-589.429
-199.478
-2190.8
-1826.93
-1367.07
-844.409
-285.545
-147.713
-124.625
-94.246
-58.6304
-19.8891
-331.918
-279.619
-211.144
-131.203
-44.4812
-713.306
-599.983
-452.387
-280.809
-95.1506
-1290.16
-1082.87
-814.868
-505.118
-171.046
-2030.92
-1699.45
-1275.46
-789.272
-267.077
-2857.46
-2381.18
-1781.02
-1099.98
-371.999
-148.199
-125.195
-94.7977
-59.0319
-20.0359
-67.9536
-57.4183
-43.4866
-27.0842
-9.19344
-264.968
-223.596
-169.12
-105.222
-35.6962
-178.319
-150.548
-113.922
-70.9046
-24.0587
-507.033
-427.287
-322.75
-200.597
-68.0146
-412.084
-347.47
-262.605
-163.282
-55.3736
-883.382
-742.963
-560.104
-347.611
-117.772
-805.508
-677.757
-511.131
-317.287
-107.507
-1330.53
-1115.75
-838.8
-519.534
-175.848
-1253.91
-1051.86
-790.921
-489.873
-165.794
-1844.05
-1538.62
-1151.54
-711.12
-240.39
-1621.54
-1353.31
-1012.65
-625.002
-211.159
-2852.3
-2362.66
-1759.01
-1083.98
-366.553
-3366.93
-2760.43
-2041.68
-1256.54
-426.128
-3792.89
-3060.31
-2245.37
-1385.42
-475.409
-5798.69
-4566.86
-3328.88
-2086.37
-746.321
-6374.95
-4856.88
-3533.14
-2294.59
-902.697
-6868.31
-5119.71
-3723.86
-2484.86
-1045.97
-3627.34
-3006.01
-2239.09
-1380.35
-466.82
-4152
-3415.46
-2531.88
-1559.07
-528.085
-4263.98
-3472.24
-2560.09
-1577.58
-537.219
-3976.23
-3189.86
-2338.18
-1448.82
-501.158
-3418.01
-2675.75
-1950.32
-1229.2
-443.783
-2971.85
-2270.51
-1647.63
-1059.32
-401.119
-228.809
-380.538
-685.45
-1161.55
-1824.52
-2641.88
-175.006
-404.95
-862.845
-1549.54
-2425.78
-3391.36
-171.771
-81.0388
-318.834
-218.031
-613.12
-502.199
-1071.47
-982.585
-1634.11
-1577.96
-2285.94
-2120.04
-3435.72
-4068.66
-4641.84
-7159.97
-8249.83
-9229.26
-4273.21
-4858.46
-4976.76
-4669.74
-4131.11
-3746.54
-206.218
-174.188
-131.883
-82.1222
-27.8727
-342.742
-289.285
-218.865
-136.21
-46.2171
-616.702
-519.862
-392.838
-244.262
-82.8425
-1043.45
-878.065
-662.437
-411.421
-139.457
-1635.28
-1372.64
-1033.27
-640.801
-217.074
-2359.29
-1972.86
-1480.47
-916.542
-310.325
-157.672
-133.126
-100.754
-62.7198
-21.2841
-364.532
-307.485
-232.499
-144.634
-49.0653
-775.778
-653.46
-493.45
-306.676
-103.987
-1390.78
-1169.23
-881.375
-547.11
-185.41
-2171.77
-1820.84
-1369.33
-848.741
-287.46
-3025.11
-2526.6
-1894.21
-1172.08
-396.789
-154.88
-130.894
-99.157
-61.7695
-20.9695
-73.0944
-61.7993
-46.8349
-29.1853
-9.90955
-287.336
-242.691
-183.739
-114.409
-38.8304
-196.58
-166.125
-125.84
-78.3893
-26.6112
-552.05
-465.777
-352.267
-219.172
-74.3561
-452.408
-381.934
-289.024
-179.901
-61.0465
-963.435
-811.595
-612.887
-380.903
-129.153
-883.968
-745.081
-562.954
-349.996
-118.693
-1466.42
-1232.52
-928.834
-576.436
-195.322
-1417.02
-1191.89
-898.759
-557.969
-189.088
-2044.18
-1711.65
-1285.74
-796.345
-269.637
-1898.24
-1591.44
-1196.5
-741.324
-250.997
-3050.12
-2535.8
-1894.98
-1171.22
-396.685
-3575.98
-2946.57
-2190.29
-1353.22
-459.837
-4008.36
-3257.07
-2406.2
-1492.22
-513.284
-5968.37
-4735.21
-3476.85
-2191.34
-786.102
-6471.05
-4961.03
-3631.8
-2370.64
-935.082
-6901.09
-5157.1
-3760.86
-2514.81
-1059.49
-3791.42
-3149.94
-2352.39
-1453.19
-492.006
-4276.97
-3527.61
-2622.14
-1618.18
-548.762
-4329.03
-3534.47
-2613.11
-1613.93
-550.346
-3981.17
-3201.37
-2352.92
-1461.68
-506.59
-3390.74
-2658.37
-1941.96
-1227.41
-444.493
-2956.11
-2259.35
-1641.04
-1056.67
-400.847
-20070.9
-14360.3
-4200.16
-3087.99
-2377.86
-3195.87
-3144.09
-12876.3
-14068.6
-11053.8
-12691.4
-7030.24
-10459.5
-5252.79
-5531.96
-3936.04
-20355.4
-10726.3
-3807.04
-6242.75
-8565.58
-5729.6
-6069.43
-4535.74
-2724.1
-3800.36
-4510.83
-4581.21
-19607.7
-12786.2
-12467.8
-8743.55
-8490.72
-9231.91
-3903.48
-4773.51
-6367.21
-13782.1
-11398.8
-9010.39
-7678.71
-6003.97
-9189.46
-6162.71
-4544.92
-3236.35
-1531.72
-3688.59
-3037.25
-2257.01
-1394.81
-474.364
-2747.31
-2288.8
-1712.89
-1059.25
-358.718
-2113.78
-1758.65
-1313.8
-810.945
-274.242
-2853.32
-2384.83
-1788.37
-1106.32
-374.376
-2787.09
-2312.98
-1725.42
-1064.98
-360.446
-9053.34
-7190.17
-5591.7
-4650.81
-4160.01
-10076.3
-8320.31
-6420.04
-4842.38
-2682.4
-7814.4
-5397.29
-3918.74
-2596.09
-1062.89
-9120.56
-7248.52
-5455.97
-3815
-1745.82
-5857.08
-4614.66
-3336.11
-2043.57
-701.425
-8080.76
-5936.35
-4231.91
-2613.34
-930.2
-4493.79
-3610.61
-2634.51
-1612.61
-547.767
-4712.97
-3773.39
-2747
-1680.34
-571.127
-3400.57
-2753.63
-2017.26
-1234.49
-417.72
-13819.3
-10576.6
-8290.53
-6750.19
-5574.94
-8164.4
-6104.36
-4478.12
-2939.09
-1220.45
-3246.17
-2605.31
-1904.64
-1172.31
-402.426
-5338.71
-4303.15
-3163.85
-1962.26
-681.011
-7093.57
-5608.32
-4115.45
-2603.91
-955.486
-4877.65
-3920.88
-2884.72
-1797.54
-628.406
-5237.06
-4254.95
-3145.78
-1954.58
-675.05
-3949.63
-3227.38
-2386.84
-1474.1
-502.973
-2383.22
-1952.02
-1441.31
-884.834
-299.244
-3355.23
-2773.11
-2061.97
-1270.57
-429.983
-3905.43
-3171.3
-2331.01
-1431.87
-486.69
-3989.67
-3258.86
-2407.36
-1483.98
-505.405
-13317.7
-10651.1
-8453.95
-6979.88
-5535.19
-8808.4
-6218.66
-4604.18
-3209.3
-1511.15
-9324.22
-7352.39
-5478.46
-3832.45
-1732.09
-6862.32
-5178.68
-3813.24
-2499.54
-972.121
-7057.06
-5600.23
-4121.34
-2615
-956.615
-7242.06
-5461.92
-4019.8
-2629.35
-1012.29
-3365.4
-2730.82
-2016.06
-1250.85
-431.423
-4201.71
-3464.01
-2573.03
-1586.68
-537.853
-5479.58
-4436.7
-3269.4
-2026.14
-698.127
-393.456
-1141.08
-1858.24
-2570.94
-3270.92
-3939.69
-2906.97
-7765.85
-7263.39
-2800.71
-9784.66
-8263.72
-9613.94
-10601.5
-2662.53
-1709.82
-6196.45
-3472.72
-11531.3
-8361.35
399.32
-2339.89
-6417.24
-5900.73
-2231.21
-8236.74
-6631.62
-7962.47
-8880.91
-2200.33
-974.688
-5343.66
-1714.55
-9374.89
-4961.92
1983.1
-1680.2
-4791.81
-4370.68
-1598.13
-6383.67
-3792.42
-6308.44
-6855.86
-1637.42
-894.129
-3727.09
-1818.06
-7298.22
-1727.02
2137.46
-1203.55
-3618.64
-3343.6
-1180.73
-4746.93
-2134.22
-5092.27
-5859.98
-1206.78
-953.243
-2685.64
-1871.98
-6274.4
-148.576
1612.29
-946.704
-2997.05
-2801.74
-966.954
-3692.61
-1701.81
-4455.89
-5592.81
-931.665
-1056.93
-1871.47
-1822.5
-5396.3
50.8503
265.5
-818.94
-2612.44
-2523.98
-857.789
-3356.73
-2014.31
-4050.88
-5298.27
-699.431
-830.433
-1485.82
-1771.03
-5326.44
-930.682
-516.166
-1402.9
-3412.07
-5211.33
-2025.22
-5500.5
-9676.86
-7568.7
-10865.8
-960.125
-624.931
-3777.6
-2153.78
-975.432
-8988.95
-4495.85
-1296.01
-3157.6
-4534.74
-1743.43
-5039.41
-8658.78
-6759.26
-9128.3
-974.965
-529.532
-3883.42
-1985.02
-150.209
-8716.36
-3221.05
-1121.69
-2741.63
-3643.65
-1374.03
-4519.93
-7559.24
-5646.68
-7842.92
-846.384
-605.979
-3240.52
-2036.73
-395.937
-6827.58
-2996.11
-946.047
-2421.85
-2943.67
-1085.59
-4130.6
-6676.67
-4912.89
-6952.58
-755.063
-600.434
-2916.11
-2070.71
-275.463
-6173.46
-2939.58
-836.699
-2141.47
-2555.35
-927.016
-3668.51
-5992.93
-4393.36
-6499.82
-690.54
-652.402
-2582.05
-2224.21
-459.535
-5804.95
-2970.38
-765.455
-1882.23
-2333.57
-838.66
-3343.04
-5876.6
-4018.59
-6226.24
-709.512
-765.19
-2268.45
-2115.28
-734.902
-5923.88
-3315.6
6664.03
8415.72
17322.6
25423.2
25937
44615.3
19803.8
50309.2
16061
35244.3
24049.7
36563.8
21477
28360.2
8134.07
9254.26
16617.9
19069
21255.1
21098.8
16642.6
20467.1
24422.5
21866.9
5572.12
4304.36
6821.3
4670.82
14062
11384
23917.5
17499
18406.7
19251.1
20672.6
20061
7522.18
5728.23
43273.9
57937.7
28044.5
34404.5
57747
75024.6
29913.9
34265.7
32307.5
45623.2
28318
37456
16716.7
26795.5
3107.52
1073.88
3171.61
1163.83
9891.55
4019.23
13498.3
5005.73
9765.85
3719.25
10147
3271.48
17198.8
5500.98
22165.7
7518.19
26343.7
13246.8
24130.1
14290.5
24402.8
15812.4
21495.1
15998
19252.5
11489.8
19334.8
10011.9
24927.8
15792.1
25005.4
15901.4
22736.2
16848.1
23017.2
16875.3
20769.2
13149.7
21509.4
13444.8
19806.4
8716.52
9305.61
11518.2
19871.1
9577.66
8231.29
11831.1
20958.3
8631.25
10462
11511.1
22003.8
8824.18
11335.8
11975.6
4006.32
4347.21
1396.87
2776.91
12299.9
13052
4868.72
8936.49
15828.5
17435.1
7972.68
13699.6
12262.2
464.438
14377.7
18373.5
10335.9
96.9789
7013.65
13235.7
21668.3
16125.5
10875.5
13475.2
12159.3
10824.2
17147.9
3628.82
2882.83
2076.47
2071.61
11152.6
9124.07
7008.18
6586.58
13719.1
11129.6
9048.43
8023.79
5583.83
7281.96
11814.7
12422.2
14912.2
13487.8
16904.7
14433.6
12172.6
10261.3
9383.17
9433.64
12514.3
9212.68
11640.5
7850.58
10311.9
6594.03
12521.9
7978.41
10573.5
4141.59
9261.6
9585.2
12924.7
16331.1
14291.7
20422.8
7506.91
7902.93
9470.5
2113.88
8322.88
15606.5
7926.14
16865.4
14185.8
25312.8
14438.9
27013.2
6466.14
13668.4
5939.41
14698.9
9041.44
6424.03
12834.5
4765.67
9020.54
857.651
11038.9
-47.2754
8787.83
9976.17
13491.7
6075.96
7353.12
11879.1
12024.9
8053
2151.86
1853.79
1584.3
1610.65
1444.28
1246.35
7134.16
5471.93
4461.63
4760.3
3551.06
2895.9
8335.63
6771.57
6065.58
5621.61
4245.63
3860.63
6095.68
4997.15
4730.82
10555.8
7348.93
5897.79
10396.1
7033.34
5361.54
10815.9
7919.66
6600.74
7362.81
4468.65
3284.75
15138.5
12206.6
9974
10137.5
7841.8
6024.85
9463.18
6771.01
4927.63
8323.96
5529.31
3833.19
9179.7
4814.49
2438.05
10936.4
14691.3
8762.85
11194.3
12125.9
17628.4
10935.2
15688.7
55.3929
610.711
-429.957
84.5234
3015.99
3391.41
1319.13
809.871
804.885
2487.72
9697.62
13991.5
6652.35
3840.68
10513.4
10446.7
16509.7
18198
-568.405
-4299.84
7874.04
7382.54
7430.33
5709.21
893.286
483.93
614.059
285.292
2043.66
162.859
-199.219
-756.887
9280.87
2247.46
6434.62
1641.11
9261.37
2771.91
11163.2
3474.5
9354
12171.6
8578.11
11821.2
15278.6
15815.1
14502.7
14897.4
5730.27
9193.67
6656.5
9164.78
9059.75
11354
9943.11
11417.8
15085.7
14586.4
15761.9
14596
5754.98
8862.16
6217.32
8971.64
-338.583
978.91
6832.98
3790.14
-834.941
597.396
6331.88
3328.43
101.083
1240.88
6958.54
4136.43
498.592
1469.43
6941.62
4242.48
-650.009
-733.326
127.617
-35.2248
-2836.74
-2811.23
-271.716
-473.609
-674.953
-1951.28
1367.9
674.667
-10104.5
-9932.93
-5403.58
-4183.99
-628.46
-10789.4
-10616.2
-4091.65
-6029.43
-1034.9
10803.9
8234.97
6919.73
6110.94
3266.8
-697.992
-592.684
-95.821
-41.1274
-2316.14
-2090.9
-260.185
-104.296
-2378.36
-2642.67
335.729
479.247
-5041.82
-1990.19
-7722.52
-4463.73
-3328.5
-2309.8
-3773.88
-3047.44
33.3728
710.542
3963.92
2467.1
1187.2
-790.012
931.363
-659.146
1307.14
109.853
1332.16
1438.33
5140.43
4568.45
9727.05
5801.03
8259.96
8053.65
12482.3
9956.48
7269.11
4138.02
3572.17
3421.48
11464.7
5012.15
12580.6
5608.11
13913.8
10174.6
14828.2
10944.3
8858.42
3346.97
9900.89
3877.84
5226.13
3855.37
3415.17
4949.36
3258.83
3494.01
2866.64
4572.8
6075.54
3752.37
3870.8
5693.96
7474.06
4065.24
5055.88
5852.03
-538.796
-520.579
-565.799
-62.1631
-194.739
-207.052
-2037.43
-2021.83
-1961.18
-211.776
-557.931
-544.205
-2679.02
-2757.16
-2719.9
293.203
-562.506
-722.047
-905.001
-747.331
-449.588
-2911.66
-2868.53
-2594.17
-2308.82
-2482.47
-2381.44
-2879.23
-2881.22
-2718.66
810.533
-257.198
-327.265
3579.02
2050.84
1138.61
-546.546
-1389.75
-1823.64
-601.615
-1601.86
-2014.69
-299.059
-1326.81
-1603.02
1510.07
-335.904
-543.695
-19.4318
-20.1507
-20.6616
-30.0333
-198.79
-96.0661
-70.4681
-57.6302
-11.1772
-41.2704
-100.868
-136.264
-336.298
-181.182
-192.099
-174.538
173.489
-0.0351094
-146.915
-250.554
-105.772
-129.216
-153.683
-154.989
0.198046
-70.2054
-58.8895
-52.5983
190.354
24.9469
-60.1609
-94.917
757.339
176.246
-6.13208
-115.665
1136.67
275.774
62.825
-219.232
506.697
84.1495
-72.7423
-206.477
925.211
210.258
72.1892
-183.201
812.984
204.204