/*--------------------------------*- C++ -*----------------------------------*\
  =========                 |
  \\      /  F ield         | OpenFOAM: The Open Source CFD Toolbox
   \\    /   O peration     | Website:  https://openfoam.org
    \\  /    A nd           | Version:  11
     \\/     M anipulation  |
\*---------------------------------------------------------------------------*/
FoamFile
{
    format      ascii;
    class       volScalarField;
    location    "1.2";
    object      gradTy;
}
// * * * * * * * * * * * * * * * * * * * * * * * * * * * * * * * * * * * * * //

dimensions      [0 -1 0 1 0 0 0];

internalField   nonuniform List<scalar> 
5712
(
12648.1
7298.15
20402.2
13439.5
22325.9
16583.1
34808.6
43509.5
45883.9
56517.8
29786.5
25985.9
18897.7
15059.3
9524.69
6454.69
20908.9
21078.4
18152.3
21158.4
28226.5
24849.7
32913.9
26277
8829.61
6259.64
4996.94
3736.85
10463.3
8481.43
6425.34
5257.76
19643.4
20112.7
19786
16242.5
15062.5
12054.2
12035.6
13762
19349.4
19358.2
41090.7
42606.5
28746.8
29751.9
16877
14236.9
18116.8
12862.9
8430.78
8737.26
7137.34
10599.6
3751.62
4695.57
9739.45
14065.6
5857.67
7020.18
10627.5
18885.8
7435.13
12577.1
2806.01
7419.88
2339.85
5514.63
18422.4
22891.6
19311.2
22977.6
22400.3
22508.1
23113.6
22407.4
16646.3
22734.4
16845.7
22331
19160
22929.4
19233.9
22940.2
23488.4
22237.2
23507.6
22088.2
15475.5
22899.8
14997.4
23027.3
19486.2
23474.5
24598
35201.6
20675.3
27436.1
24410.2
38644.6
18463.9
20518.5
24671.8
33651.9
18283
19147.1
24943.9
33333.5
6420.92
8589.01
16537.6
29641.2
7822.02
9050.15
20976.7
33177.9
9515.45
9664.43
26145.4
36178.3
25597.7
26702.7
22385.9
22323.9
33961.8
26673.1
25778.5
22727.3
20214.5
39345.5
24407.7
24618.1
22555.8
23386.5
44191.4
2389.03
2897.9
5253.46
12640.8
3347.11
3872.39
7064.47
13797.8
4864.9
4145.17
9379.8
15324.4
25926.5
24785.8
23849.1
22633.9
21236.8
18652
16418.9
14151.6
12095
17501.3
23842.8
22355
24559
23524.4
21934
20061.7
18748
16546.2
12772.8
17351.2
24655.2
27555.2
24689.3
28398.2
23373.2
23901.3
22939.8
24278.3
22967.8
23268.8
22748.5
22525.8
24544.4
28584.4
24486.3
28620.6
22339.9
24685.4
22207.4
24688.7
23060.5
23216.8
23091.8
23234.5
19737
18726.2
12862.8
14488.6
19643.6
18291.8
12708.1
14721.8
19979.7
18632.7
13124.9
14467.5
20064.5
18439.1
13530.2
14448.1
1847.77
1156.85
756.048
1017.15
631.308
577.08
2605.62
1395.68
991.444
1955.4
1474.17
1199.09
2873.07
2127.23
2023.36
3387.24
2590.36
2235.61
22526.1
19143.4
16956.7
21124.3
18505.3
16645.7
15406.3
13488.4
12415.7
10878.9
8755.66
7818.63
5211.36
3522.98
2842.64
20641.4
17924.4
15908.9
21712.2
18533
16308.4
16491.7
13151.2
11317.1
11025.9
8106.96
6896.67
5507.02
3474.18
2642.57
28200.7
27287.3
30990.2
27500.9
31974.2
27526.1
38992.9
29264.3
21517.7
21468.9
21344
19536
24193.6
22419.3
23907.4
20150.1
23660.3
23266
21739
23009.6
28411.4
25802.4
29167.8
29740.8
32015.2
33260.3
24100.6
25128.3
21576.6
21008
25977.4
26744.5
16424.9
8858.22
15468.3
9800.21
16712.1
8937.67
15471.8
9742.12
16519.7
8973.83
15480.6
10155.8
15124
10626.1
15342.1
10524.9
21505.2
18071.2
21606
18185.3
23980.7
21410.1
24479.2
21360.9
20963.1
14947.1
21645.1
14637.1
22244.1
18182.2
22603.2
18002.2
25294.8
21288.7
25402.9
21058.8
20897.2
15053
20897.3
14970.2
13549.9
8993.69
11687.3
7627.54
12503.1
8040
11155.6
7124.64
13956.9
9558.69
11915.4
7862.9
14004.3
9883.81
11889.6
7915.08
2570.47
1342.32
4767.36
2694.91
2728.19
1619.91
5063.74
3165.94
3328.05
2405.18
5580.53
4047.34
12779.3
20158.1
9167.18
8780.96
6395.16
19537.6
13334.4
7697.67
7747.59
5271.15
20603
15949.8
12509.7
9663.62
6244.5
717.381
501.991
1653.77
1246.19
974.024
632.135
2193.13
1726.88
1644.84
1170.29
3047.94
2441.15
19492.5
18201.4
12890.9
11818.1
8194.25
7814.4
6861.18
5887.7
4474.21
3581.08
18494.8
16241.1
14020.6
11754.1
10703.3
8968.05
8069.76
6800.91
5444.06
5010.89
14598
11235.9
14816.8
11124
17949
14428.7
18074.8
14448
12121
9281.09
11670.1
9187.76
14903
11043.1
14832.2
11045.3
18093.6
14843.5
17956.6
14837.9
12395.7
9207.46
12380.1
9328.81
9311.86
7377.22
6381.07
6220.76
8914.19
7130.75
6087.04
5841.48
9732.35
7557.67
6552.55
6573.44
9950.89
7556.98
6798.9
6664.17
1232.08
1048.99
850.069
5231.21
2735.01
2192.42
1209.4
1155.27
1003.21
5764.68
3278.09
2721.2
1705.81
1842.63
1841.28
6523.52
4176.98
3631.53
16194.9
14249.9
13009.6
10626.7
9658.44
9108.11
7434.97
6876.88
6628.94
6065.49
5527.1
5213.71
7604.64
5243.4
4604.1
13993.8
12025.6
10798.5
9941.55
8579.35
7836.6
7876.4
6780.03
6207.34
7187.58
5976.83
5320
9380.93
5952.11
5154.52
4808.35
2823.71
1744.46
1138.51
5383.03
3053.81
1836.05
1171.01
4837.15
2826.27
1750.08
1145.06
5497.66
3118.83
1882.46
1197.87
4838.2
2808.89
1779.38
1166.54
5615.21
3164.1
1952.67
1236.16
6028.15
3337.81
1961.11
1237.02
6188.59
3454.68
2001.48
1263.44
5145.19
2988.89
1863.14
1196.67
4313.96
2669.81
1729.38
1142
4555.37
2728.31
1756.92
1139.59
4003.26
2528.1
1666.45
1105.01
5540.03
3184.14
1930.7
1229.58
4500.47
2772.22
1767.28
1168.75
5756.96
3314.71
1981.99
1262.05
4582.77
2844.67
1803.27
1193.62
3688.74
2448.11
1606.91
1085.96
2541.38
2011.11
1440.37
1019.4
3707.6
2442.96
1609.33
1086.32
2646.57
2040.52
1450.66
1025.57
3807.54
2452.41
1632.54
1102.63
2951.79
2130.63
1487.15
1049.61
3791.57
2412.11
1619.51
1129.54
3221.58
2198.59
1538.92
1057.94
3590.08
2362.36
1595.75
1089.83
1471.81
1667.85
1172.84
356.932
374.54
1483.96
1071.44
362.055
1672.47
1735.66
1201.45
375.731
601.712
1557.54
1095.39
369.993
2057.95
1857.59
1240.79
375.382
1000.61
1684.22
1128.91
374.576
2545.05
2007.54
1307.72
407.006
1451.48
1830.16
1180.28
391.151
2898.09
2151.34
1391.93
467.986
1637.83
1949.87
1229.13
405.969
3125.41
2318.5
1428.2
451.033
1525.39
2097.28
1322.05
432.757
3035.45
2245.53
1402.4
449.986
1454.82
2030.09
1274.78
417.21
3167.65
2368.67
1439.16
424.333
1515.06
2151.74
1349.12
435.271
3232.14
2417.52
1471.34
431.453
1609.46
2203.76
1381.25
444.647
812.372
527.245
314.75
163.875
50.4945
806.442
526.575
315.082
164.136
50.5776
823.137
532.453
316.967
164.789
50.744
821.764
533.202
317.997
165.366
50.917
846.005
539.716
319.789
165.928
51.0543
842.066
540.776
321.338
166.788
51.3116
851.473
549.015
325.63
168.732
51.8622
870.414
560.355
331.518
171.425
52.63
868.481
548.271
323.746
167.65
51.5356
922.097
558.106
326.395
168.544
51.7649
872.403
545.945
321.875
166.716
51.2644
920.693
554.45
324.327
167.593
51.4937
875.342
555.439
327.563
169.392
52.0311
939.004
565.03
329.836
170.104
52.2083
895.998
566.514
333.092
171.895
52.7431
960.825
574.921
334.604
172.252
52.8198
831.2
529.564
314.661
163.662
50.4206
868.48
532.367
314.698
163.539
50.3763
841.621
533.718
316.343
164.339
50.6038
877.066
535.563
316
164.064
50.5182
863.361
540.628
318.957
165.386
50.8877
895.981
541.389
318.292
164.995
50.7712
895.837
548.253
321.555
166.4
51.1615
918.496
547.592
320.852
166.058
51.063
925.824
552.143
322.998
166.988
51.3215
12588.2
19593
13019.8
19736
13601.4
19836.9
13835.1
19709.9
12948.9
18550
11569.1
13111.3
11724
14010.5
11558.8
12866.6
11731.9
12969.1
11278.8
1941.75
417.841
94.4337
16.8279
12581.5
3597.31
878.716
200.771
35.7564
11287.8
1911.2
408.803
92.1219
16.3805
12563.7
3553.55
865.774
197.044
34.8135
11201
1874.51
398.36
89.5147
15.8987
12439.3
3490.01
847.271
192.39
33.9721
10865.2
1782.65
376.21
84.4678
15.0098
12055.6
3358.41
813.808
184.755
32.6244
10068
1611.01
339.815
76.6559
13.669
11193.5
3128.32
761.572
173.608
30.7304
8616.36
1434.93
313.156
71.9607
12.9543
8831.72
2600.67
651.873
151.47
27.1249
9069.85
1486.1
320.346
73.0927
13.1059
9550.9
2805.92
696.395
160.345
28.5346
8417.72
1415.26
310.287
71.4904
12.8867
8549.92
2500.62
627.401
146.318
26.291
8351.84
1398.25
306.258
70.5895
12.7148
8513.24
2470.55
618.118
144.489
25.9256
35720.5
51325.3
50005.6
34529.4
19974.6
21089.8
29521.9
31008.2
23366
26363.1
37462.1
51554.4
47510.2
63356.1
30873.9
35379.7
24064.9
25832.2
12999.1
14301.5
4726.5
2986.96
542.435
376.75
427.5
361.505
476.486
4416.28
4133.34
2402.06
3269.04
2983.59
1219.02
1788.51
1529.54
952.223
1116.34
877.086
4038.05
1962.39
1088.95
947.894
1300.96
1102.01
811.824
732.905
645.11
550.064
821.62
730.593
4328.06
2465.53
2871.4
1685.33
1310.49
1984.95
822.029
582.374
922.986
9333.42
8887.85
8529.2
8984.55
13852.3
6419.44
6964.72
7185.1
7647.83
8596.5
1405.65
1960.4
2350.97
2599.4
2722.72
987.359
1400.16
1702.6
1898.4
1994.66
1119.5
1584.85
1922.55
2138.23
2242.86
949.492
1350.62
1646.12
1837.41
1931
1242.64
1748.6
2110.87
2341.18
2453.43
9027.75
8831.12
8230.33
8215.3
12138.9
8437.59
8107.04
7418.91
7200.05
7951.37
5369.43
6058.48
6210.76
6344.54
6664.66
6850.12
6841.48
6327.25
6009.82
6004.93
6254.66
6318.28
5850.23
5478.24
5350.43
2972.23
3786.91
4208.8
4429.87
4546.87
4145.38
4910.49
5167.74
5274.98
5373.69
3601.19
4356.46
4635.1
4722.6
4758.8
2381.72
3146.56
3594.23
3839.11
3954.06
2739.57
3519.34
3926.24
4125.07
4213.3
2210.8
2952.17
3398.21
3642.82
3753.52
8410.44
8496.4
8144.98
8343.08
12457.8
4536.14
5387.98
5756.67
6043.42
6414.77
2697.37
3518.32
3989.95
4262.29
4411.2
2376.82
3158.27
3640.09
3931.68
4088.78
3162.56
4026.43
4504.27
4806.79
5019.62
2734.22
3583.05
4096.76
4423.18
4619.74
2060.28
2789.21
3269.87
3574.8
3737.57
1875
2564.53
3023.93
3307.62
3449.67
1663.12
2297.91
2725.96
2983.97
3105.83
1427.72
1993.77
2388.96
2634.45
2752.37
2083.92
2811.41
3270.8
3539.38
3669.42
1868.24
2552.36
3003.68
3277.38
3411.73
8754.64
8598.67
8305.01
8698.07
13258.3
5470.82
6198.52
6541.24
6982.01
7700.17
6482.64
7218.72
7331.08
7714.69
9045.46
3994.91
4935.1
5454.3
5859.7
6235.75
3200.39
4108.07
4640.65
5002.99
5257.49
4594.79
5484.56
5905.33
6263
6711.28
2085.64
2820.75
3300.82
3600.8
3758.57
1506.08
2092.82
2499.43
2753.43
2877.62
2321.09
3098.69
3588.27
3891.16
4055.71
20134.3
13449.6
20677.2
14868.7
26564.5
38601
27884
38511.4
21162.3
22214
18247.9
21587.6
23708.1
22312
30661
24758.4
15751.9
15068.1
7716.54
6724.67
17100.7
15930.4
8827.58
7326.16
21263.4
22857.7
21576.8
19503.8
22258
14626.5
11966.4
13785.2
19472.1
19402.1
40898.8
42634.2
28177.9
29623.2
17728.2
14435.3
19125.6
13063.4
9321.7
8963.86
16190.1
18146.4
6746.4
7445.62
17700.4
20505.5
8365.91
9344.51
16689.2
23811.7
9653.06
15135.6
3333.6
8315.51
2449.28
5692.78
19493.3
22147.7
19453.1
22569.1
20842.2
21002.8
22113.5
21593.8
18091.9
22837.6
20583
22531
19125
22718.3
19206
22872.3
22997.8
21834
23368.4
21965.2
15972.8
22937.9
15099.8
23032.7
20715.1
25003
25061.3
35690
22664.6
29865.9
25240.2
39477
19052.6
21285.9
24893.1
33907.7
18443
19366.8
25003.6
33411.2
22283.8
24001.3
28412.9
42570
22262.9
22667.7
30327.2
43001.4
21696.6
21208.7
32469.6
42375.6
19669.7
20084.6
21587.9
23636.8
36717.3
19213.3
18329.5
22933.3
21435.1
42256.4
20046.8
21389.2
21780.4
24404.6
45347.9
12598.6
11337.9
12158
16142
13821.2
12466.1
12563
16517
15278
13007.9
13083.6
16772.3
18386.8
17290
17624.6
16791.4
21032.7
19227.8
17694.3
15676.9
13641.5
17410.4
19506
18878.1
21146.1
20920.3
20818
19303.3
19395.1
17058
13372.5
16729.8
23128
25849.3
23974.1
27520.6
21388.4
22064.5
22027.2
23397.5
22682.1
22836.1
22198.6
21811.6
24210.8
28181.1
24387.8
28504.4
21926.8
24271.6
22087.1
24570.1
22912.7
23008.4
23045.1
23174.4
19796.1
18635.1
13019.2
14485.7
19825.7
18227.9
13058.9
14698.9
19993.6
18579.2
13191.6
14469.2
20065.3
18421.9
13549.1
14448.2
10248
10422.8
4522.83
4120.54
11434.3
11006.8
5063.07
4806.31
11099.1
10258
5729.27
5482.28
16633.6
15828.7
16663.9
16487.8
17074.5
16268.8
13187.6
11559.2
6804.02
5501.45
18657.9
17525.7
20539.9
19342
16788.1
15191.2
12383.2
10342.5
6214.56
4501.12
23010.3
21606.7
28752.5
24741.8
26080.2
22934.2
36398.3
26974.8
20828.7
16840.2
22969.6
17863.5
20661.2
17137
23068.8
18139.3
21513.5
18751.8
19279.2
17653.9
21415.3
23059.8
27829.6
29345.1
30984.6
32977.9
22812.3
24693.8
20456.1
20691.1
24414.7
26222.4
13499.4
9846.48
14065.5
10109.7
13800.6
9775.88
14300.2
9986.37
13716.2
9645.1
14295.5
10223.8
14415.3
10576.8
15101.8
10499.1
17575.9
16795.6
19681.3
17398.3
20487.4
19427.7
22673.4
20278.8
19071.9
14608.7
17862.2
14299.9
21303.1
17765.6
22326.5
17876.1
24447.4
20753.1
25163.4
20899.1
19950.9
14841.3
20616.5
14903.6
13077.7
9302.97
11809
7941.81
12342.9
8952.22
11639
7826.5
13609.9
9646.81
11930.4
8001.16
13885.9
9898.95
11889.8
7958.37
12768.4
12565.3
9183.6
8415.51
12902.8
12692.5
9048.91
8350.71
12843.6
12221.9
8839.18
8276.37
15246.8
18348
15787.7
11570.7
8561.66
16926.3
15542.4
16985.1
11468.9
8240.85
18722.8
16198.6
14049.3
11597.6
7709.46
12565
12894.6
8153.54
8414.72
12504.7
12652.6
8106.17
8335.7
11751.7
11608.4
7826.76
7689.77
16503.9
15234.2
14551.8
13536.4
14688.5
14502.4
11228.5
11351.6
7644.38
7261.34
16719.9
14877.9
14633.4
12813.8
12800.6
11611.4
10638.7
10010.6
7113.75
7084.73
14384.9
11673.6
14540.7
11239.4
16786
13785.6
17394.9
14083.5
12240.5
9746.32
12244.8
10350.9
14721.4
11071.3
14774.3
11048.6
17754.2
14654.9
17855.7
14782.5
12387.4
9384.24
12365.3
9368.95
9715.87
8023.83
6800.09
6826.42
9916.35
8569.13
6950.66
7107.81
9876.84
7822.02
6739.02
6877.14
9988.42
7629.17
6858.87
6755.59
14491.5
14288.3
18341.1
15679.5
14071
13917
17625.1
15012.3
12470.5
12717.8
16232.8
13952.9
14355.7
13579
12704.2
12203.3
14109.1
14117.4
12307
11965
14900.1
12669.2
13397.1
12406.9
11600.4
11089.4
11225.3
11172.8
11366
10849.3
14319.3
11423.2
6054.21
3602.85
2169.42
1376.3
6269.35
3708.25
2221.81
1392.46
5965.37
3548.71
2138.65
1361.01
6229.91
3681.15
2216.25
1391.19
5804.75
3443.92
2124.21
1358.74
6179.96
3615.36
2233.09
1401.63
6345.2
3617.71
2144.4
1348.73
6292.33
3551.23
2063.44
1302.08
5635.31
3349.28
2092.35
1338.55
4656.1
2931.96
1896.37
1249.39
5359.37
3251.01
2062.55
1318.39
4577.17
2935.07
1895.12
1238.43
5801.28
3396.44
2072.3
1319.26
4681.42
2919.38
1869.76
1239.55
5836.56
3385.16
2030.1
1293.09
4639.21
2892.38
1837.89
1217.82
5620.58
3409.67
2086.99
1345.14
4943.25
3132.08
1976.03
1298.93
5500.72
3352.85
2060.58
1328.33
4863.56
3099.79
1958.95
1291.87
5336.74
3261.89
2040.14
1322.95
4810
3058.31
1942.22
1287.92
4968.61
3091.69
1971.17
1323.75
4669.79
2988.03
1928.79
1255.38
4460.01
2920.07
1884.62
1244.34
4004.99
2854.69
1679.52
480.747
2618.71
2682.06
1592.15
504.842
4026.86
2852.95
1684.15
497.363
2720.65
2682.76
1591.54
507.237
4072.75
2836.66
1667.3
478.918
2864.21
2670.67
1572.17
496.936
4025.91
2797.9
1679.65
502.157
2853.33
2635.36
1560.73
498.401
3807.03
2721.89
1691.34
556.982
2460.53
2553.77
1537.16
496.31
3403.02
2555.64
1594.82
507.889
1712.12
2352.96
1480.38
484.269
3545.7
2625.8
1636.01
523.113
1859.53
2439.02
1503.58
487.459
3305.03
2498.11
1538.06
458.79
1592.33
2289.07
1440.17
465.817
3272.05
2458.58
1503.74
442.941
1628.14
2246.34
1410.43
454.575
959.102
605.447
353.595
181.357
55.4557
940.564
600.646
352.341
180.981
55.3644
958.396
603.661
352.325
180.707
55.2626
939.682
597.764
350.462
180.051
55.0915
968.978
602.476
350.823
179.892
55.0184
941.568
594.212
348.166
178.925
54.7625
919.313
585.97
344.286
177.194
54.2708
895.27
574.245
338.574
174.634
53.5444
958.98
596.51
347.716
178.462
54.6078
1006.83
600.924
347.434
178.008
54.4527
987.52
603.381
350.073
179.385
54.8601
1030.19
606.059
349.458
178.865
54.6922
934.809
588.4
344.09
176.873
54.1593
993.703
593.922
344.164
176.573
54.048
916.509
577.896
338.836
174.503
53.4858
979.558
584.953
339.608
174.519
53.4648
997.803
612.691
355.121
181.754
55.5457
1061.55
619.342
356.205
182.009
55.6018
1000.02
611.697
354.261
181.297
55.4085
1062.44
618.403
355.526
181.659
55.4971
1009.83
610.559
352.872
180.557
55.1875
1066.82
616.597
354.191
180.99
55.2998
1032.12
610.574
351.629
179.85
54.974
1073.28
613.591
352.46
180.168
55.0606
1055.3
609.474
350.707
179.389
54.838
14091.5
18728.7
14129.6
18696.2
14208.2
18608.6
13861
18268.9
12806
17217.3
11577.9
13028.8
11732
13746.7
11565.6
12842
11734.6
12964.5
11114.4
1873.36
399.975
90.2647
16.092
11968
3434.51
839.063
191.798
34.186
11038
1837.66
390.893
88.0537
15.6717
11883.7
3383.18
825.765
188.211
33.2979
10834.7
1794.58
380.634
85.6422
15.2357
11685.9
3312.7
807.605
183.9
32.5382
10436.5
1705.79
360.36
81.1035
14.4406
11302.3
3189.32
777.287
177.106
31.3479
9727.07
1554.37
328.214
74.1729
13.2462
10589.5
2992.43
732.038
167.395
29.6924
8546.68
1419.97
309.285
71.0042
12.7788
8736.46
2563.69
641.556
148.982
26.6784
8915.73
1455.81
313.288
71.4718
12.8203
9311.9
2728.61
677.261
156.072
27.8012
8388.88
1408.55
308.406
70.9979
12.7932
8515.13
2485.39
622.711
145.106
26.064
8344.18
1396.34
305.699
70.4386
12.6856
8504.64
2466.54
616.807
144.134
25.8573
35319.3
51165.8
49302.7
33272.4
25646.7
31006.7
24705.7
30858.4
29177.1
47264.6
31077.8
48505.1
58.7447
68.8235
91.1658
128.813
187.076
273.39
66.8514
77.7227
101.684
141.573
201.795
288.276
52.8058
49.9333
63.0972
61.01
86.0817
85.9928
125.305
129.666
185.478
196.14
269.879
280.932
398.321
574.985
826.707
1187.02
1618.91
1932.17
408.147
568.292
774.188
1019.27
1262.3
1421.35
156.712
228.562
285.491
324.722
344.679
183.415
267.068
333.027
378.282
401.235
242.545
352.193
437.963
496.392
525.886
341.906
494.61
612.786
692.548
732.575
494.944
712.322
878.158
988.792
1043.93
719.88
1028.44
1259.26
1411.05
1486.21
178.207
259.598
323.858
368.002
390.413
206.937
300.86
374.601
425.007
450.512
270.188
391.542
485.946
549.966
582.197
375.147
541.278
668.96
754.689
797.593
532.784
764.361
939.637
1055.96
1113.82
757.385
1078.42
1316.7
1472.78
1550.06
140.947
205.754
257.235
292.796
310.915
133.317
194.703
243.532
277.3
294.52
168.257
245.237
306.107
347.973
369.242
162.734
237.289
296.312
336.951
357.612
229.184
333.172
414.772
470.508
498.689
229.003
333.037
414.756
470.617
498.875
332.883
482.208
598.18
676.668
716.112
344.526
499.197
619.376
700.726
741.604
491.244
708.149
874.272
985.369
1040.78
519.524
748.963
924.623
1041.99
1100.47
711.767
1019.22
1250.35
1402.64
1477.98
741.261
1062.07
1303.31
1462.05
1540.41
1041.2
1471.13
1783.95
1986.34
2086.34
1486.19
2065.58
2471.49
2730.75
2860.89
2099.85
2847.45
3344.82
3663.43
3833.94
2934.55
3835.89
4395.89
4773.12
5013.09
3863.02
4819.7
5370.95
5794.24
6150.57
4509.07
5462.49
5984.9
6437.21
6890.26
1065.12
1501.3
1817.09
2021.18
2122.27
1469.52
2043.66
2446.59
2704.33
2833.59
1977.69
2702.87
3193.02
3506.11
3669.09
2564.3
3431.03
3992.74
4357.43
4562.15
3125.14
4091.81
4694.57
5100.15
5352.71
3484.03
4501.8
5122.91
5554.23
5842.53
59.5813
71.489
96.1299
136.902
199.501
291.677
67.772
80.6227
106.971
149.899
213.936
304.859
53.6078
50.7399
65.6842
63.6452
91.0263
91.1528
133.668
138.72
198.833
210.779
290.966
305.429
423.076
604.132
855.743
1208.46
1629.19
1934.69
428.983
591.704
797.025
1037.55
1273.4
1424.95
158.968
231.908
289.742
329.625
349.925
190.601
277.732
346.592
393.942
417.996
255.947
372.127
463.373
525.778
557.37
363.791
527.278
654.576
741.013
784.58
528.676
762.949
943.275
1064.63
1125.51
769.783
1103.94
1357.11
1525.69
1609.92
180.691
263.288
328.557
373.432
396.226
214.766
312.505
389.445
442.173
468.904
284.482
412.854
513.178
581.52
616.039
397.711
575.047
712.27
805.022
851.664
565.805
814.054
1003.72
1130.74
1194.35
802.717
1147.18
1406.04
1577.65
1663.36
143.107
208.951
261.292
297.469
315.911
135.488
197.915
247.603
281.988
299.531
175.225
255.565
319.225
363.099
385.422
169.83
247.798
309.651
352.325
374.051
242.521
352.984
439.992
499.641
529.883
242.918
353.698
441.045
500.976
531.375
355.491
515.914
641.245
726.564
769.623
369.007
535.701
666.026
754.781
799.581
527.491
762.525
944.177
1066.75
1128.3
559.312
808.786
1001.7
1131.87
1197.21
769.272
1106.11
1362.84
1534.31
1619.99
808.063
1163.02
1434.03
1615.1
1705.5
1109.36
1575.62
1921.04
2148.46
2262.18
1567.73
2193.45
2642.62
2936.14
3085.49
2183.72
2984.46
3534.24
3896.19
4091.98
3001.28
3953.86
4567.89
4992.57
5262.35
3900.74
4894.99
5487.45
5949.26
6332.56
4520.41
5487.68
6025.53
6492.86
6957.09
1122.53
1589.4
1932.79
2158.14
2270.9
1534.82
2145.63
2582.62
2867.24
3011.56
2042.66
2807.05
3335.08
3679.04
3859.77
2618
3520.5
4118.28
4513.49
4736.47
3159.22
4151.16
4780.3
5208.98
5476.02
3495.48
4522.39
5153.2
5593.21
5887.13
4711.12
2984.54
580.445
406.528
476.296
397.273
520.715
4213.89
3939.01
2423.79
3108.56
1314.46
1862.1
1047.56
1194.85
958.463
3940.79
2002.69
1173.02
1018.03
1366.47
1156.19
852.62
789.516
727.076
617.291
904.858
799.447
4284.29
2466.1
2850.73
1705.66
1349
2012.28
873.007
635.743
983.064
9327.1
8920.79
8596.91
9096.32
14055.6
6425.62
6993.95
7239.66
7729.67
8703.69
1511.89
2126.73
2573.13
2865.5
3013.33
1069.23
1525.38
1866.51
2091.85
2204.23
1253.29
1788.72
2188.61
2451.68
2582.16
1047.44
1499.56
1840.08
2065.47
2177.56
1365.14
1937.93
2360.91
2638.16
2776.19
9009.06
9507.58
9509.18
10030.3
14812.5
8608.73
9277.88
9453.56
9938.14
11218.4
5614.76
6749.87
7372.77
7906.68
8486.44
7214.64
8284.83
8620.56
9025.2
9454.18
3290.8
4379.07
5081.44
5533.98
5784.59
4492.76
5688.99
6391.55
6868.99
7183.61
2675.92
3658.87
4325.3
4748.56
4965.19
3028.28
4094.51
4798.39
5242.16
5472.16
2465.22
3402.52
4049.07
4458.85
4664.07
8383.91
8844.02
8882.02
9434.67
14167.8
4731.21
5840.59
6491.08
7026.32
7565.21
2960.26
3983.08
4660.94
5104.09
5352.24
2587.63
3517.44
4148.74
4563.76
4792.54
3379.47
4430.36
5105.28
5575.94
5891.82
2901.4
3876.22
4520.57
4957.82
5220.87
2178.99
2984.81
3541.72
3909.65
4109.11
2037.51
2827.77
3384.76
3747.24
3933.96
1893.43
2660.73
3212.59
3568.35
3744.87
1614
2281.8
2769.53
3086.78
3244.34
2328.75
3218.46
3837.29
4234.81
4437.87
2066.36
2873.88
3444.41
3813.83
4002.16
8743.2
8713.54
8533.97
9062.08
13907.1
5501.51
6292.95
6706.56
7219.55
7999.53
6527.87
7455.21
7778.18
8369.77
9913.43
4074.3
5101.09
5717.23
6212.88
6651.7
3325.94
4340.04
4987.08
5450.19
5768.3
4728.64
5800.74
6428.2
6975.2
7556.99
2234.26
3066.04
3641.78
4020.35
4223.52
1656.08
2329.31
2816.8
3134.52
3294.17
2499.92
3400.58
4013.98
4419.43
4643.74
6205.46
5949.46
5483.34
4749.32
3589.08
1438.87
20336.2
20636.7
23073.3
23922.9
19701.5
20709.2
21881.4
20987.4
16937.9
21816.3
17540.4
22298.3
20076.6
18008.8
28905
19388.9
19532.1
21599.9
22173.4
18455.3
19454.7
20759.9
20121.5
16785.2
26356.5
17284.9
26008.4
20217.1
22141.1
30989.8
18255.8
18257.5
19673.8
19967.4
17432
18897.5
19214.7
19136.4
19145.8
22975.1
19902.6
22866.3
21879.5
24399.1
27550.6
17125.3
17149.5
17802.6
17915.4
16697.5
18405.3
17534.3
17762.5
17660.2
19769.7
18375.9
19131.8
19657
21491.4
23321.1
15979
16039.9
16446.6
16464.7
16122.2
17960.9
16336.8
16753.3
16466.9
15922.6
17203.5
15143.1
17722.7
17557.4
18760.8
15417.4
15529
15512
15492.3
15521
16971.5
15536.7
15866.8
15508.6
13369
16015.7
12977
16210.8
14989.9
16633.5
22341.8
21366.5
23759.2
25101.6
20426.5
20234.4
21929.1
20743.6
19330.9
13992
19223.5
14046.5
16970.7
15256.7
18175.6
20844.3
20130.5
21723
22619.2
19525.3
19521.1
20483.8
19485.4
17588.6
13251.3
17518.7
13334.9
15234.4
13464
16449.2
18807.8
18371.6
19215.2
19670.6
17994.1
18000.2
18564.9
17927.3
16259.1
12588.9
15992.8
12339.6
14208.8
11963.4
15668.9
16703.7
16441.7
17110.7
17334.8
16171.8
16108.5
16844.9
16322.6
14725.2
12351.3
14569.4
12082.3
13091
11598.9
15250.8
15405.3
15222.4
15798.5
15922.6
14850.3
14786.2
15695.1
15329.2
13959.8
12760.8
13848.7
12620.8
12703
11715.5
15162.6
14462
14297.8
14967.8
15055.7
14022.5
14174.1
14850.5
14657.6
13512.6
13002
13467.8
12939.1
12479.4
11953.6
15412.7
12447.2
7066.38
20393.5
13446.8
22348.8
16568.6
34838.6
43523.9
45938.4
56544.4
29840.4
25985.9
18906.7
15088.4
9243.74
6161.69
20911.8
21080.6
18150.4
21159.2
28240.4
24855.6
32922.6
26281.5
8649.05
6131.26
4828.55
3623.19
10432.5
8470.58
6423.06
5272.68
19637.7
20107.1
19784
16242.7
15057.6
12057.4
12036.5
13763.6
19351
19359.9
41098.1
42611.6
28750.3
29754.4
16877.9
14238.6
18118.4
12864.4
8431.98
8738.47
7009.02
10437.6
3651.42
4582.35
9741.76
14080
5873.95
7039.54
10629
18893.1
7442.14
12586.1
2807.55
7423.39
2340.39
5515.97
18423.4
22892.6
19312.5
22978.7
22403.1
22509.6
23116
22408.5
16648.3
22735.6
16845.8
22332
19161.2
22930.5
19235
22941.1
23490.2
22238
23508.8
22088.8
15476.9
22901.2
14998.6
23028.7
19488.4
23478.9
24600
35204.5
20677.1
27440.7
24412.1
38648.1
18465.9
20521.6
24673.7
33654.6
18284.9
19149.7
24945.8
33336
6324.5
8495.22
16332.4
29420.7
7828.33
9054.24
20995.1
33200.8
9518.36
9666.83
26153.6
36187
25597.6
26703.4
22385.4
22325.3
33966.6
26673.5
25778.2
22726.1
20215.2
39350.6
24408.6
24618.6
22556.4
23388.3
44195.6
2344.5
2864.63
5150.63
12527.9
3352.1
3877.7
7078.96
13810.5
4867.24
4146.43
9384.43
15327.2
25926.5
24785.7
23848.7
22633.7
21235.9
18651.5
16419.8
14152.4
12097.3
17502.9
23843.1
22355
24559.2
23524.5
21934.4
20062.1
18749.3
16547.2
12774.3
17352.3
24655.7
27555.3
24689.9
28398.4
23373.7
23901.3
22940.3
24278.3
22968.6
23269.4
22749.3
22526.4
24544.9
28584.6
24486.8
28620.8
22340.2
24685.4
22207.6
24688.6
23061.3
23217.3
23092.5
23235
19738.1
18727
12863.7
14489.4
19644.7
18292.7
12709.2
14722.7
19980.7
18633.4
13125.7
14468.2
20065.5
18439.8
13531
14448.8
1824.44
1139.56
742.573
1013.83
626.253
570.997
2614.63
1400.19
993.025
1963.2
1478.72
1201.25
2873.55
2127.91
2024.15
3388.16
2591.76
2236.96
22526.1
19143.6
16957.2
21124.4
18505.9
16646.4
15406.6
13489.2
12416.7
10879.6
8756.52
7819.6
5212
3523.75
2843.37
20641.4
17924.6
15909.3
21712.3
18533.5
16309.1
16492.1
13151.8
11317.8
11026.6
8107.6
6897.37
5507.52
3474.64
2642.98
28205.3
27288.6
30993.4
27502.1
31989.2
27531.9
39006.2
29269.4
21332.5
21412.3
21123.7
19466.7
24160.5
22389.2
23870.8
20120.9
23654.6
23261
21738.8
23007.6
28393.4
25786.4
29168.8
29741.1
32019
33262.5
24098.6
25127.2
21575.6
21007
25969.5
26740.7
16428.2
8863.04
15464.8
9806.9
16692.3
8932.46
15455
9738.03
16506.7
8968.91
15469.4
10150.7
15117.6
10622.2
15338.8
10522.5
21503.3
18070.8
21604.9
18184.9
23982.7
21410.9
24481.1
21361.5
20957.3
14945.7
21637.7
14635.4
22243.5
18181.8
22602.6
18001.7
25296.1
21289
25403.5
21058.8
20893.7
15051.9
20895.2
14969.2
13546.4
8991.04
11685.5
7626.14
12499.4
8037.39
11153.5
7123.11
13954.3
9556.45
11913.9
7861.72
14002.5
9882.12
11888.4
7914.09
2558.3
1327.63
4753.28
2677.76
2728.48
1620.81
5063.49
3166.67
3327.04
2404.93
5578.84
4046.64
12780
20159.3
9166.7
8779.25
6393.55
19538.4
13334.7
7697.5
7746.31
5270.06
20603.7
15949.7
12508.5
9661.9
6243.17
702.979
486.155
1636.06
1234.73
975.13
631.946
2193.39
1726.45
1645
1170.72
3047.75
2441.35
19492.7
18201.3
12890.6
11817.7
8193.8
7813.82
6860.38
5887.28
4473.57
3580.85
18495
16241.1
14020.4
11753.8
10702.5
8967.5
8068.75
6800.34
5443.17
5010.3
14597.7
11235.5
14816.5
11123.6
17949.3
14428.7
18075
14447.9
12120.2
9280.46
11669.2
9187.09
14902.7
11042.7
14831.8
11044.9
18093.7
14843.4
17956.5
14837.7
12395
9206.88
12379.5
9328.25
9310.85
7376.53
6380.2
6220.01
8913.06
7130.04
6086.09
5840.72
9731.47
7557.03
6551.79
6572.72
9950.09
7556.4
6798.21
6663.53
1209.8
1031.01
835.922
5199.11
2708.29
2167.48
1207.54
1154.45
1003.22
5762.32
3277.99
2721.35
1706.2
1842.9
1841.49
6523.36
4177.21
3631.83
16194.8
14249.9
13009.7
10626.3
9658.1
9107.86
7434.36
6876.4
6628.58
6065.16
5526.83
5213.47
7604.1
5243.29
4604.11
13993.7
12025.6
10798.5
9941.22
8579.09
7836.41
7875.96
6779.73
6207.11
7187.08
5976.53
5319.8
9379.93
5951.77
5154.36
4808.01
2823.11
1743.87
1137.92
5381.31
3051.88
1834.94
1170.21
4835.91
2825.78
1749.82
1144.94
5496.82
3118.5
1882.28
1197.76
4836.82
2808.38
1779.11
1166.4
5613.78
3163.6
1952.42
1236.03
6026.73
3337.28
1960.86
1236.88
6187.48
3454.21
2001.25
1263.3
5144.04
2988.37
1862.88
1196.52
4313.18
2669.37
1729.13
1141.85
4554.28
2727.81
1756.65
1139.45
4002.46
2527.66
1666.2
1104.86
5538.94
3183.64
1930.44
1229.43
4499.76
2771.81
1767.04
1168.6
5756.05
3314.27
1981.75
1261.91
4582.16
2844.3
1803.06
1193.48
3687.01
2447.85
1606.77
1085.55
2538.27
2010.24
1440.27
1019
3706.78
2442.54
1609.08
1086.21
2646.01
2040.22
1450.48
1025.49
3806.63
2451.97
1632.29
1102.5
2951.16
2130.28
1486.94
1049.5
3790.72
2411.67
1619.25
1129.38
3220.9
2198.21
1538.69
1057.8
3589.34
2361.94
1595.49
1089.67
1470
1667.06
1172.98
357.017
373.699
1482.5
1070.96
361.886
1672.02
1735.48
1201.28
375.67
601.249
1557.48
1095.33
369.974
2057.54
1857.32
1240.61
375.32
1000.37
1684
1128.78
374.531
2544.56
2007.21
1307.52
406.944
1451.22
1829.87
1180.11
391.095
2897.55
2150.97
1391.71
467.917
1637.56
1949.54
1228.93
405.908
3124.92
2318.13
1427.99
450.972
1525.18
2096.95
1321.85
432.694
3034.92
2245.15
1402.19
449.923
1454.59
2029.75
1274.58
417.147
3167.21
2368.33
1438.96
424.279
1514.88
2151.43
1348.93
435.212
3231.76
2417.22
1471.16
431.404
1609.3
2203.49
1381.08
444.592
811.694
526.942
314.63
163.828
50.4821
805.676
526.199
314.925
164.073
50.5606
823.107
532.416
316.945
164.779
50.7412
821.716
533.163
317.975
165.356
50.9143
845.943
539.674
319.765
165.917
51.051
841.997
540.732
321.313
166.777
51.3083
851.392
548.966
325.603
168.719
51.8584
870.331
560.306
331.491
171.411
52.6261
868.393
548.222
323.719
167.637
51.5319
921.986
558.052
326.366
168.53
51.7609
872.319
545.898
321.85
166.704
51.2609
920.585
554.397
324.299
167.58
51.4899
875.248
555.387
327.535
169.379
52.027
938.89
564.974
329.807
170.089
52.2041
895.906
566.461
333.063
171.882
52.739
960.714
574.866
334.574
172.238
52.8155
830.523
529.305
314.564
163.625
50.4109
867.856
532.15
314.617
163.508
50.3681
841.606
533.682
316.322
164.329
50.6012
877.063
535.526
315.979
164.055
50.5157
863.302
540.586
318.933
165.375
50.8846
895.924
541.349
318.269
164.984
50.7682
895.751
548.206
321.529
166.388
51.158
918.41
547.546
320.826
166.046
51.0595
925.721
552.092
322.972
166.975
51.3179
12529.8
19527.2
13022.9
19738.6
13603.3
19838.1
13836.3
19710.7
12949.8
18550.8
11569.8
13112.1
11724.8
14011.3
11559.4
12867.2
11732.6
12969.8
11269.5
1929.53
414.607
93.6787
16.6929
12566
3590.57
876.662
200.264
35.6618
11284.5
1912.03
408.96
92.1463
16.3836
12561.6
3552.75
865.481
196.958
34.7967
11200.3
1874.6
398.373
89.5123
15.8975
12438.8
3489.75
847.163
192.354
33.9644
10865.3
1782.67
376.208
84.4645
15.0087
12055.7
3358.36
813.772
184.741
32.6209
10068.3
1611.05
339.82
76.6554
13.6687
11193.8
3128.36
761.57
173.604
30.729
8616.8
1435
313.169
71.9634
12.9547
8832.16
2600.78
651.898
151.475
27.1256
9070.27
1486.16
320.356
73.0943
13.1061
9551.31
2806.01
696.412
160.347
28.5346
8418.17
1415.34