/*--------------------------------*- C++ -*----------------------------------*\
  =========                 |
  \\      /  F ield         | OpenFOAM: The Open Source CFD Toolbox
   \\    /   O peration     | Website:  https://openfoam.org
    \\  /    A nd           | Version:  11
     \\/     M anipulation  |
\*---------------------------------------------------------------------------*/
FoamFile
{
    format      ascii;
    class       volScalarField;
    location    "6.5";
    object      epsilon;
}
// * * * * * * * * * * * * * * * * * * * * * * * * * * * * * * * * * * * * * //

dimensions      [0 2 -3 0 0 0 0];

internalField   nonuniform List<scalar> 
700
(
3.64879e-05
3.64879e-05
3.64879e-05
3.64879e-05
3.64879e-05
3.64879e-05
3.64879e-05
3.64879e-05
3.64879e-05
3.64879e-05
3.64879e-05
3.64879e-05
3.64879e-05
3.64879e-05
3.64879e-05
3.64879e-05
3.64879e-05
3.64879e-05
3.64879e-05
3.64879e-05
3.64879e-05
3.64879e-05
3.64879e-05
3.64879e-05
3.64879e-05
3.64879e-05
3.64879e-05
3.64879e-05
3.64879e-05
3.64879e-05
3.64879e-05
3.64879e-05
3.64879e-05
3.64879e-05
3.64879e-05
3.64879e-05
3.64879e-05
3.64879e-05
3.64879e-05
3.64879e-05
3.64879e-05
3.64879e-05
3.64879e-05
3.64879e-05
3.64879e-05
3.64879e-05
3.64879e-05
3.64879e-05
3.64879e-05
3.64879e-05
3.64879e-05
3.64879e-05
3.64879e-05
3.64879e-05
3.64879e-05
3.64879e-05
3.64879e-05
3.64879e-05
3.64879e-05
3.64879e-05
3.6488e-05
3.6488e-05
3.64879e-05
3.64879e-05
3.64879e-05
3.64879e-05
3.64879e-05
3.64879e-05
3.64879e-05
3.64879e-05
3.64897e-05
3.64891e-05
3.64885e-05
3.64881e-05
3.6488e-05
3.64879e-05
3.64879e-05
3.64878e-05
3.64875e-05
3.64872e-05
3.65277e-05
3.65124e-05
3.64991e-05
3.6492e-05
3.64892e-05
3.64882e-05
3.64874e-05
3.64851e-05
3.64803e-05
3.64736e-05
3.71604e-05
3.68436e-05
3.66344e-05
3.65374e-05
3.65017e-05
3.64889e-05
3.64774e-05
3.6451e-05
3.63882e-05
3.62526e-05
4.02798e-05
3.83389e-05
3.7193e-05
3.6725e-05
3.65494e-05
3.64755e-05
3.64198e-05
3.63556e-05
3.62816e-05
3.62625e-05
3.93811e-05
3.84848e-05
3.74699e-05
3.69181e-05
3.66561e-05
3.65387e-05
3.64755e-05
3.64183e-05
3.63463e-05
3.62808e-05
3.81789e-05
3.80977e-05
3.74735e-05
3.70349e-05
3.67674e-05
3.66202e-05
3.65418e-05
3.64922e-05
3.6444e-05
3.63875e-05
3.67591e-05
3.7301e-05
3.71378e-05
3.69474e-05
3.67849e-05
3.66668e-05
3.65897e-05
3.65411e-05
3.65057e-05
3.64703e-05
3.52772e-05
3.62176e-05
3.64825e-05
3.65909e-05
3.66148e-05
3.66e-05
3.65732e-05
3.65469e-05
3.65249e-05
3.65049e-05
3.3979e-05
3.50843e-05
3.56639e-05
3.60334e-05
3.62569e-05
3.63836e-05
3.645e-05
3.64811e-05
3.64932e-05
3.64955e-05
3.31325e-05
3.42295e-05
3.49752e-05
3.55049e-05
3.58698e-05
3.61128e-05
3.62687e-05
3.63649e-05
3.64217e-05
3.64536e-05
3.29371e-05
3.39447e-05
3.47172e-05
3.5286e-05
3.56944e-05
3.59796e-05
3.61728e-05
3.62997e-05
3.63801e-05
3.6429e-05
3.34855e-05
3.43575e-05
3.50214e-05
3.55044e-05
3.58482e-05
3.6087e-05
3.6249e-05
3.63572e-05
3.64294e-05
3.64789e-05
3.48576e-05
3.53724e-05
3.57329e-05
3.59988e-05
3.61884e-05
3.63207e-05
3.64139e-05
3.64853e-05
3.655e-05
3.6621e-05
3.6129e-05
3.60796e-05
3.61591e-05
3.62595e-05
3.63461e-05
3.64118e-05
3.64602e-05
3.64974e-05
3.65279e-05
3.65513e-05
3.63048e-05
3.63024e-05
3.63304e-05
3.63721e-05
3.64129e-05
3.64466e-05
3.64727e-05
3.64928e-05
3.65082e-05
3.65184e-05
3.64049e-05
3.64073e-05
3.64182e-05
3.64349e-05
3.64525e-05
3.64681e-05
3.64807e-05
3.64904e-05
3.64976e-05
3.6502e-05
3.64543e-05
3.64557e-05
3.64598e-05
3.64661e-05
3.64731e-05
3.64795e-05
3.6485e-05
3.64893e-05
3.64924e-05
3.64941e-05
3.6476e-05
3.64765e-05
3.64779e-05
3.648e-05
3.64825e-05
3.64849e-05
3.6487e-05
3.64887e-05
3.64899e-05
3.64906e-05
3.64844e-05
3.64845e-05
3.64849e-05
3.64855e-05
3.64863e-05
3.6487e-05
3.64878e-05
3.64884e-05
3.64888e-05
3.6489e-05
3.64872e-05
3.64872e-05
3.64873e-05
3.64874e-05
3.64876e-05
3.64878e-05
3.6488e-05
3.64882e-05
3.64883e-05
3.64883e-05
3.64879e-05
3.64879e-05
3.64879e-05
3.64879e-05
3.64879e-05
3.64879e-05
3.6488e-05
3.6488e-05
3.64881e-05
3.64881e-05
3.6488e-05
3.6488e-05
3.6488e-05
3.6488e-05
3.6488e-05
3.6488e-05
3.6488e-05
3.6488e-05
3.6488e-05
3.6488e-05
3.6488e-05
3.6488e-05
3.6488e-05
3.6488e-05
3.6488e-05
3.64879e-05
3.64879e-05
3.64879e-05
3.64879e-05
3.64879e-05
3.64879e-05
3.64879e-05
3.64879e-05
3.64879e-05
3.64879e-05
3.64879e-05
3.64879e-05
3.64879e-05
3.64879e-05
3.64879e-05
3.64879e-05
3.64879e-05
3.64879e-05
3.64879e-05
3.64879e-05
3.64879e-05
3.64879e-05
3.64879e-05
3.64879e-05
3.64879e-05
3.64879e-05
3.64879e-05
3.64879e-05
3.64879e-05
3.64879e-05
3.64879e-05
3.64879e-05
3.64879e-05
3.64879e-05
3.64879e-05
3.64879e-05
3.64879e-05
3.64879e-05
3.64879e-05
3.64879e-05
3.64879e-05
3.64879e-05
3.64879e-05
3.64879e-05
3.64879e-05
3.64879e-05
3.64879e-05
3.64879e-05
3.64879e-05
3.64879e-05
3.64879e-05
3.64879e-05
3.64879e-05
3.64879e-05
3.64879e-05
3.64879e-05
3.64879e-05
3.64879e-05
3.64879e-05
3.64879e-05
3.64879e-05
3.64879e-05
3.64879e-05
3.64879e-05
3.64879e-05
3.64879e-05
3.64879e-05
3.64879e-05
3.64879e-05
3.64879e-05
3.64879e-05
3.64879e-05
3.64879e-05
3.64879e-05
3.64879e-05
3.64879e-05
3.64879e-05
3.64879e-05
3.64879e-05
3.64879e-05
3.64879e-05
3.64879e-05
3.64879e-05
3.64879e-05
3.64879e-05
3.64879e-05
3.64879e-05
3.64879e-05
3.64879e-05
3.64879e-05
3.64879e-05
3.64879e-05
3.64879e-05
3.64879e-05
3.64879e-05
3.64879e-05
3.64879e-05
3.64879e-05
3.64879e-05
3.64879e-05
3.64879e-05
3.64879e-05
3.64879e-05
3.64879e-05
3.64879e-05
3.66016e-05
3.66233e-05
3.66474e-05
3.66699e-05
3.66864e-05
3.66952e-05
3.66965e-05
3.66884e-05
3.66747e-05
3.66593e-05
3.65566e-05
3.65782e-05
3.65993e-05
3.66124e-05
3.66129e-05
3.66013e-05
3.6581e-05
3.6556e-05
3.65299e-05
3.65041e-05
3.65347e-05
3.65493e-05
3.65608e-05
3.65628e-05
3.65532e-05
3.65353e-05
3.65135e-05
3.64915e-05
3.64709e-05
3.64522e-05
3.65265e-05
3.65354e-05
3.65389e-05
3.65341e-05
3.6522e-05
3.65068e-05
3.64919e-05
3.64796e-05
3.64701e-05
3.64637e-05
3.65319e-05
3.6539e-05
3.65362e-05
3.65261e-05
3.65129e-05
3.65005e-05
3.64912e-05
3.64857e-05
3.64844e-05
3.64881e-05
3.65535e-05
3.6567e-05
3.65584e-05
3.65401e-05
3.65212e-05
3.65061e-05
3.64961e-05
3.64905e-05
3.64888e-05
3.64912e-05
3.65971e-05
3.66336e-05
3.66192e-05
3.65852e-05
3.65509e-05
3.65237e-05
3.65038e-05
3.64883e-05
3.64738e-05
3.64582e-05
3.66728e-05
3.67648e-05
3.67446e-05
3.6683e-05
3.66191e-05
3.65648e-05
3.65176e-05
3.64691e-05
3.6411e-05
3.63482e-05
3.67983e-05
3.70022e-05
3.69747e-05
3.6871e-05
3.67597e-05
3.66562e-05
3.65472e-05
3.64042e-05
3.62052e-05
3.59975e-05
3.69342e-05
3.74072e-05
3.74214e-05
3.73098e-05
3.7178e-05
3.70391e-05
3.68521e-05
3.65211e-05
3.58817e-05
3.46864e-05
3.65581e-05
3.65367e-05
3.65207e-05
3.65124e-05
3.65105e-05
3.65122e-05
3.65117e-05
3.64949e-05
3.6422e-05
3.61776e-05
3.65206e-05
3.65139e-05
3.6506e-05
3.64996e-05
3.64945e-05
3.64883e-05
3.64765e-05
3.64516e-05
3.64038e-05
3.63349e-05
3.65028e-05
3.65002e-05
3.64962e-05
3.64918e-05
3.64867e-05
3.64797e-05
3.64684e-05
3.64508e-05
3.64266e-05
3.64036e-05
3.64944e-05
3.64932e-05
3.64911e-05
3.64883e-05
3.64845e-05
3.64792e-05
3.64715e-05
3.64613e-05
3.64497e-05
3.64408e-05
3.64906e-05
3.649e-05
3.64889e-05
3.64872e-05
3.64848e-05
3.64815e-05
3.64771e-05
3.64717e-05
3.64662e-05
3.64625e-05
3.6489e-05
3.64887e-05
3.64881e-05
3.64872e-05
3.64859e-05
3.64841e-05
3.64817e-05
3.64791e-05
3.64766e-05
3.6475e-05
3.64883e-05
3.64881e-05
3.64879e-05
3.64874e-05
3.64868e-05
3.64859e-05
3.64848e-05
3.64835e-05
3.64824e-05
3.64818e-05
3.64881e-05
3.6488e-05
3.64878e-05
3.64876e-05
3.64873e-05
3.64869e-05
3.64864e-05
3.64859e-05
3.64854e-05
3.64852e-05
3.6488e-05
3.64879e-05
3.64879e-05
3.64878e-05
3.64876e-05
3.64875e-05
3.64873e-05
3.6487e-05
3.64869e-05
3.64867e-05
3.64879e-05
3.64879e-05
3.64879e-05
3.64878e-05
3.64878e-05
3.64877e-05
3.64876e-05
3.64875e-05
3.64874e-05
3.64874e-05
3.64879e-05
3.64879e-05
3.64879e-05
3.64879e-05
3.64879e-05
3.64879e-05
3.64879e-05
3.64879e-05
3.64879e-05
3.64879e-05
3.64879e-05
3.64879e-05
3.64879e-05
3.64879e-05
3.64879e-05
3.64879e-05
3.64879e-05
3.64879e-05
3.64879e-05
3.64879e-05
3.64879e-05
3.64879e-05
3.64879e-05
3.64879e-05
3.64879e-05
3.64879e-05
3.64879e-05
3.64879e-05
3.64879e-05
3.64879e-05
3.64879e-05
3.64879e-05
3.64879e-05
3.64879e-05
3.64879e-05
3.64879e-05
3.64879e-05
3.64879e-05
3.64879e-05
3.64879e-05
3.64879e-05
3.64879e-05
3.64879e-05
3.64879e-05
3.64879e-05
3.64879e-05
3.64879e-05
3.64879e-05
3.64879e-05
3.64879e-05
3.64879e-05
3.64879e-05
3.64879e-05
3.64879e-05
3.64879e-05
3.64879e-05
3.64879e-05
3.64879e-05
3.64879e-05
3.64879e-05
3.64879e-05
3.64879e-05
3.64879e-05
3.64879e-05
3.64879e-05
3.64879e-05
3.64879e-05
3.64879e-05
3.64879e-05
3.64879e-05
3.64879e-05
3.64879e-05
3.64879e-05
3.64879e-05
3.64879e-05
3.64879e-05
3.64879e-05
3.64879e-05
3.64879e-05
3.64879e-05
3.64879e-05
3.64879e-05
3.64879e-05
3.64879e-05
3.64879e-05
3.64879e-05
3.64879e-05
3.64879e-05
3.64879e-05
3.64879e-05
3.64879e-05
3.64879e-05
3.64879e-05
3.64879e-05
3.64879e-05
3.64879e-05
3.64879e-05
3.64879e-05
3.64879e-05
3.64879e-05
)
;

boundaryField
{
    defaultFaces
    {
        type            empty;
    }
}


// ************************************************************************* //
