/*--------------------------------*- C++ -*----------------------------------*\
  =========                 |
  \\      /  F ield         | OpenFOAM: The Open Source CFD Toolbox
   \\    /   O peration     | Website:  https://openfoam.org
    \\  /    A nd           | Version:  11
     \\/     M anipulation  |
\*---------------------------------------------------------------------------*/
FoamFile
{
    format      ascii;
    class       volScalarField;
    location    "6.5";
    object      k;
}
// * * * * * * * * * * * * * * * * * * * * * * * * * * * * * * * * * * * * * //

dimensions      [0 2 -2 0 0 0 0];

internalField   nonuniform List<scalar> 
700
(
0.000236848
0.000236848
0.000236848
0.000236848
0.000236848
0.000236848
0.000236848
0.000236848
0.000236848
0.000236848
0.000236848
0.000236848
0.000236848
0.000236848
0.000236848
0.000236848
0.000236848
0.000236848
0.000236848
0.000236848
0.000236848
0.000236848
0.000236848
0.000236848
0.000236848
0.000236848
0.000236848
0.000236848
0.000236848
0.000236848
0.000236848
0.000236848
0.000236848
0.000236848
0.000236848
0.000236848
0.000236848
0.000236848
0.000236848
0.000236848
0.000236848
0.000236848
0.000236848
0.000236848
0.000236848
0.000236848
0.000236848
0.000236848
0.000236848
0.000236848
0.000236848
0.000236848
0.000236848
0.000236848
0.000236848
0.000236848
0.000236848
0.000236848
0.000236848
0.000236848
0.000236848
0.000236848
0.000236848
0.000236848
0.000236848
0.000236848
0.000236848
0.000236848
0.000236848
0.000236848
0.000236863
0.000236858
0.000236853
0.00023685
0.000236849
0.000236848
0.000236848
0.000236846
0.000236844
0.000236842
0.000237163
0.000237049
0.000236945
0.000236885
0.00023686
0.00023685
0.000236841
0.000236822
0.000236785
0.000236738
0.000241731
0.000239542
0.00023802
0.000237268
0.000236968
0.000236848
0.000236743
0.000236536
0.000236086
0.000235175
0.000262709
0.00024984
0.000242041
0.0002387
0.000237359
0.000236753
0.000236307
0.000235829
0.000235305
0.000235154
0.000256747
0.000250817
0.000243971
0.000240111
0.000238186
0.000237266
0.000236745
0.000236293
0.000235765
0.000235295
0.000248468
0.000248015
0.000243898
0.000240906
0.000239007
0.000237907
0.000237284
0.000236872
0.000236488
0.000236062
0.000238653
0.000242344
0.000241381
0.000240163
0.000239069
0.000238236
0.000237663
0.000237279
0.000236987
0.0002367
0.000228505
0.000234779
0.000236663
0.000237492
0.000237727
0.000237668
0.0002375
0.000237316
0.000237148
0.000236987
0.000219715
0.000227001
0.000230914
0.00023347
0.000235062
0.000235999
0.000236513
0.000236768
0.000236877
0.000236903
0.000214043
0.000221214
0.000226162
0.000229741
0.000232262
0.000233983
0.000235121
0.000235847
0.000236293
0.000236554
0.000212774
0.00021933
0.000224418
0.000228226
0.000231015
0.000233009
0.000234398
0.000235338
0.000235955
0.000236348
0.000216485
0.000222156
0.000226528
0.000229763
0.000232116
0.000233791
0.000234957
0.000235752
0.00023629
0.000236654
0.000225635
0.000229001
0.000231405
0.000233218
0.000234544
0.000235488
0.000236154
0.00023664
0.000237032
0.000237402
0.000234085
0.000233794
0.000234362
0.000235079
0.000235708
0.000236193
0.000236549
0.000236808
0.000237002
0.000237138
0.000235373
0.000235377
0.000235594
0.000235908
0.000236219
0.000236478
0.000236677
0.000236824
0.00023693
0.000236997
0.000236138
0.000236165
0.000236257
0.000236392
0.000236534
0.00023666
0.000236761
0.000236837
0.00023689
0.000236922
0.000236537
0.000236553
0.000236591
0.000236646
0.000236707
0.000236763
0.000236809
0.000236845
0.000236869
0.000236883
0.000236725
0.000236732
0.000236747
0.000236768
0.000236791
0.000236814
0.000236833
0.000236848
0.000236859
0.000236864
0.000236805
0.000236808
0.000236813
0.00023682
0.000236828
0.000236836
0.000236843
0.000236849
0.000236853
0.000236855
0.000236836
0.000236836
0.000236838
0.00023684
0.000236842
0.000236845
0.000236847
0.000236849
0.00023685
0.000236851
0.000236846
0.000236846
0.000236846
0.000236846
0.000236847
0.000236848
0.000236848
0.000236849
0.000236849
0.000236849
0.000236848
0.000236848
0.000236848
0.000236848
0.000236848
0.000236848
0.000236848
0.000236848
0.000236848
0.000236848
0.000236849
0.000236848
0.000236848
0.000236848
0.000236848
0.000236848
0.000236848
0.000236848
0.000236848
0.000236848
0.000236848
0.000236848
0.000236848
0.000236848
0.000236848
0.000236848
0.000236848
0.000236848
0.000236848
0.000236848
0.000236848
0.000236848
0.000236848
0.000236848
0.000236848
0.000236848
0.000236848
0.000236848
0.000236848
0.000236848
0.000236848
0.000236848
0.000236848
0.000236848
0.000236848
0.000236848
0.000236848
0.000236848
0.000236848
0.000236848
0.000236848
0.000236848
0.000236848
0.000236848
0.000236848
0.000236848
0.000236848
0.000236848
0.000236848
0.000236848
0.000236848
0.000236848
0.000236848
0.000236848
0.000236848
0.000236848
0.000236848
0.000236848
0.000236848
0.000236848
0.000236848
0.000236848
0.000236848
0.000236848
0.000236848
0.000236848
0.000236848
0.000236848
0.000236848
0.000236848
0.000236848
0.000236848
0.000236848
0.000236848
0.000236848
0.000236848
0.000236848
0.000236848
0.000236848
0.000236848
0.000236848
0.000236848
0.000236848
0.000236848
0.000236848
0.000236848
0.000236848
0.000236848
0.000236848
0.000236848
0.000236848
0.000236848
0.000236848
0.000236848
0.000236848
0.000236848
0.000236848
0.000236848
0.000236848
0.000236848
0.000236848
0.000236848
0.000236848
0.000236848
0.000236848
0.000236848
0.000236848
0.000236848
0.000236848
0.000236848
0.000237375
0.000237464
0.000237561
0.00023765
0.000237713
0.000237743
0.000237742
0.000237705
0.000237643
0.000237572
0.000237199
0.000237288
0.000237371
0.000237416
0.000237405
0.000237341
0.000237236
0.000237107
0.000236969
0.000236826
0.000237122
0.000237184
0.000237226
0.000237222
0.000237162
0.000237061
0.000236937
0.000236805
0.000236672
0.000236539
0.000237111
0.000237153
0.000237159
0.000237121
0.000237045
0.000236951
0.000236855
0.00023677
0.000236698
0.000236643
0.000237179
0.000237223
0.000237197
0.000237125
0.000237033
0.000236945
0.000236876
0.000236833
0.000236819
0.000236847
0.000237349
0.000237449
0.000237393
0.000237262
0.000237122
0.000237006
0.000236924
0.000236876
0.000236858
0.000236876
0.000237663
0.000237933
0.000237847
0.00023761
0.000237359
0.000237149
0.000236988
0.000236856
0.000236733
0.000236607
0.000238187
0.000238843
0.000238734
0.000238318
0.000237863
0.000237458
0.000237091
0.000236704
0.000236254
0.000235791
0.000239029
0.000240439
0.000240302
0.000239618
0.000238847
0.0002381
0.000237289
0.000236231
0.000234815
0.000233413
0.000239927
0.000243104
0.000243252
0.000242521
0.000241611
0.000240615
0.000239257
0.000236925
0.000232623
0.000224859
0.000237187
0.000237107
0.000237045
0.000237019
0.000237026
0.000237052
0.000237064
0.00023697
0.000236508
0.000234928
0.000237018
0.000236993
0.000236959
0.00023693
0.000236905
0.000236872
0.000236802
0.000236646
0.00023634
0.000235895
0.000236931
0.000236921
0.0002369
0.000236875
0.000236844
0.000236799
0.000236727
0.000236613
0.000236457
0.000236307
0.000236887
0.000236881
0.000236868
0.00023685
0.000236824
0.000236788
0.000236736
0.000236667
0.00023659
0.000236532
0.000236865
0.000236861
0.000236854
0.000236841
0.000236824
0.000236801
0.000236769
0.000236731
0.000236694
0.000236669
0.000236855
0.000236853
0.000236848
0.000236841
0.000236831
0.000236817
0.0002368
0.000236781
0.000236763
0.000236752
0.000236851
0.000236849
0.000236847
0.000236843
0.000236838
0.000236831
0.000236822
0.000236813
0.000236804
0.000236799
0.000236849
0.000236848
0.000236847
0.000236845
0.000236843
0.000236839
0.000236835
0.000236831
0.000236827
0.000236825
0.000236848
0.000236848
0.000236847
0.000236847
0.000236845
0.000236844
0.000236842
0.00023684
0.000236838
0.000236838
0.000236848
0.000236848
0.000236848
0.000236847
0.000236847
0.000236846
0.000236845
0.000236844
0.000236843
0.000236843
0.000236848
0.000236848
0.000236848
0.000236848
0.000236848
0.000236848
0.000236848
0.000236848
0.000236848
0.000236848
0.000236848
0.000236848
0.000236848
0.000236848
0.000236848
0.000236848
0.000236848
0.000236848
0.000236848
0.000236848
0.000236848
0.000236848
0.000236848
0.000236848
0.000236848
0.000236848
0.000236848
0.000236848
0.000236848
0.000236848
0.000236848
0.000236848
0.000236848
0.000236848
0.000236848
0.000236848
0.000236848
0.000236848
0.000236848
0.000236848
0.000236848
0.000236848
0.000236848
0.000236848
0.000236848
0.000236848
0.000236848
0.000236848
0.000236848
0.000236848
0.000236848
0.000236848
0.000236848
0.000236848
0.000236848
0.000236848
0.000236848
0.000236848
0.000236848
0.000236848
0.000236848
0.000236848
0.000236848
0.000236848
0.000236848
0.000236848
0.000236848
0.000236848
0.000236848
0.000236848
0.000236848
0.000236848
0.000236848
0.000236848
0.000236848
0.000236848
0.000236848
0.000236848
0.000236848
0.000236848
0.000236848
0.000236848
0.000236848
0.000236848
0.000236848
0.000236848
0.000236848
0.000236848
0.000236848
0.000236848
0.000236848
0.000236848
0.000236848
0.000236848
0.000236848
0.000236848
0.000236848
0.000236848
0.000236848
0.000236848
)
;

boundaryField
{
    defaultFaces
    {
        type            empty;
    }
}


// ************************************************************************* //
