/*--------------------------------*- C++ -*----------------------------------*\
  =========                 |
  \\      /  F ield         | OpenFOAM: The Open Source CFD Toolbox
   \\    /   O peration     | Website:  https://openfoam.org
    \\  /    A nd           | Version:  11
     \\/     M anipulation  |
\*---------------------------------------------------------------------------*/
FoamFile
{
    format      ascii;
    class       volScalarField;
    location    "6.5";
    object      nut;
}
// * * * * * * * * * * * * * * * * * * * * * * * * * * * * * * * * * * * * * //

dimensions      [0 2 -1 0 0 0 0];

internalField   nonuniform List<scalar> 
700
(
0.000138367
0.000138367
0.000138367
0.000138367
0.000138367
0.000138367
0.000138367
0.000138367
0.000138367
0.000138367
0.000138367
0.000138367
0.000138367
0.000138367
0.000138367
0.000138367
0.000138367
0.000138367
0.000138367
0.000138367
0.000138367
0.000138367
0.000138367
0.000138367
0.000138367
0.000138367
0.000138367
0.000138367
0.000138367
0.000138367
0.000138367
0.000138367
0.000138367
0.000138367
0.000138367
0.000138367
0.000138367
0.000138367
0.000138367
0.000138367
0.000138367
0.000138367
0.000138367
0.000138367
0.000138367
0.000138367
0.000138367
0.000138367
0.000138367
0.000138367
0.000138367
0.000138367
0.000138367
0.000138367
0.000138367
0.000138367
0.000138367
0.000138367
0.000138367
0.000138367
0.000138367
0.000138367
0.000138367
0.000138367
0.000138367
0.000138367
0.000138367
0.000138367
0.000138367
0.000138367
0.000138378
0.000138375
0.000138371
0.000138369
0.000138368
0.000138367
0.000138367
0.000138366
0.000138364
0.000138363
0.000138584
0.000138509
0.000138437
0.000138395
0.000138376
0.000138368
0.000138361
0.000138348
0.000138323
0.000138292
0.000141523
0.000140166
0.000139181
0.000138671
0.000138456
0.000138364
0.000138285
0.000138142
0.000137855
0.000137305
0.000154208
0.00014653
0.000141762
0.000139633
0.000138731
0.000138304
0.000137994
0.000137679
0.000137347
0.000137242
0.000150648
0.000147118
0.000142967
0.000140549
0.000139293
0.000138662
0.000138294
0.000137983
0.000137639
0.000137338
0.000145533
0.000145311
0.000142868
0.000141035
0.000139829
0.000139103
0.000138672
0.000138379
0.000138113
0.00013783
0.000139448
0.000141706
0.000141199
0.000140498
0.000139836
0.000139311
0.000138934
0.000138669
0.000138462
0.000138262
0.000133211
0.000136975
0.000138171
0.000138729
0.000138913
0.0001389
0.000138805
0.00013869
0.000138577
0.000138465
0.000127864
0.000132185
0.00013456
0.000136144
0.000137157
0.000137771
0.000138119
0.0001383
0.00013838
0.000138403
0.000124448
0.000128667
0.00013162
0.000133793
0.000135353
0.000136443
0.000137181
0.000137665
0.000137969
0.000138154
0.000123707
0.000127546
0.000130561
0.000132852
0.000134562
0.00013581
0.0001367
0.000137317
0.000137733
0.000138006
0.000125963
0.000129282
0.000131872
0.00013382
0.000135265
0.000136316
0.000137063
0.000137583
0.000137937
0.000138175
0.000131449
0.00013343
0.000134871
0.000135981
0.000136811
0.000137413
0.000137837
0.000138134
0.000138347
0.00013851
0.000136501
0.000136348
0.00013671
0.000137167
0.000137573
0.000137891
0.000138122
0.000138285
0.000138395
0.000138466
0.000137339
0.000137352
0.0001375
0.000137709
0.000137916
0.000138091
0.000138225
0.000138321
0.000138386
0.000138425
0.000137852
0.000137875
0.000137941
0.000138036
0.000138135
0.000138223
0.000138293
0.000138345
0.00013838
0.0001384
0.000138131
0.000138144
0.000138173
0.000138214
0.000138259
0.000138299
0.000138333
0.000138358
0.000138375
0.000138385
0.000138269
0.000138275
0.000138287
0.000138303
0.000138321
0.000138339
0.000138353
0.000138364
0.000138372
0.000138376
0.000138331
0.000138333
0.000138337
0.000138343
0.00013835
0.000138357
0.000138362
0.000138367
0.00013837
0.000138371
0.000138356
0.000138356
0.000138358
0.00013836
0.000138362
0.000138364
0.000138366
0.000138368
0.000138369
0.000138369
0.000138364
0.000138365
0.000138365
0.000138365
0.000138366
0.000138366
0.000138367
0.000138367
0.000138368
0.000138368
0.000138367
0.000138367
0.000138367
0.000138367
0.000138367
0.000138367
0.000138367
0.000138367
0.000138367
0.000138367
0.000138367
0.000138367
0.000138367
0.000138367
0.000138367
0.000138367
0.000138367
0.000138367
0.000138367
0.000138367
0.000138367
0.000138367
0.000138367
0.000138367
0.000138367
0.000138367
0.000138367
0.000138367
0.000138367
0.000138367
0.000138367
0.000138367
0.000138367
0.000138367
0.000138367
0.000138367
0.000138367
0.000138367
0.000138367
0.000138367
0.000138367
0.000138367
0.000138367
0.000138367
0.000138367
0.000138367
0.000138367
0.000138367
0.000138367
0.000138367
0.000138367
0.000138367
0.000138367
0.000138367
0.000138367
0.000138367
0.000138367
0.000138367
0.000138367
0.000138367
0.000138367
0.000138367
0.000138367
0.000138367
0.000138367
0.000138367
0.000138367
0.000138367
0.000138367
0.000138367
0.000138367
0.000138367
0.000138367
0.000138367
0.000138367
0.000138367
0.000138367
0.000138367
0.000138367
0.000138367
0.000138367
0.000138367
0.000138367
0.000138367
0.000138367
0.000138367
0.000138367
0.000138367
0.000138367
0.000138367
0.000138367
0.000138367
0.000138367
0.000138367
0.000138367
0.000138367
0.000138367
0.000138367
0.000138367
0.000138367
0.000138367
0.000138367
0.000138367
0.000138367
0.000138367
0.000138367
0.000138367
0.000138367
0.000138367
0.000138367
0.000138367
0.000138367
0.000138367
0.000138367
0.000138367
0.000138367
0.000138367
0.000138367
0.000138367
0.000138367
0.000138552
0.000138573
0.000138596
0.000138614
0.000138625
0.000138627
0.000138622
0.000138608
0.000138588
0.000138564
0.000138517
0.000138539
0.000138556
0.000138559
0.000138545
0.000138513
0.000138468
0.000138412
0.000138349
0.00013828
0.00013851
0.000138527
0.000138532
0.00013852
0.000138487
0.000138437
0.000138374
0.000138304
0.000138226
0.000138141
0.000138528
0.000138544
0.000138538
0.000138511
0.000138468
0.000138415
0.000138361
0.000138307
0.000138259
0.000138219
0.000138587
0.000138612
0.000138592
0.000138546
0.000138488
0.000138433
0.000138388
0.000138358
0.000138347
0.000138365
0.000138704
0.00013877
0.000138736
0.000138653
0.000138561
0.000138482
0.000138425
0.00013839
0.000138376
0.000138388
0.000138906
0.000139083
0.000139036
0.000138889
0.000138725
0.000138584
0.000138471
0.000138376
0.000138286
0.000138199
0.00013923
0.000139648
0.000139597
0.000139345
0.000139056
0.000138788
0.000138538
0.000138271
0.000137965
0.000137662
0.000139738
0.000140613
0.000140557
0.000140151
0.000139672
0.000139192
0.000138657
0.000137963
0.000137063
0.000136213
0.000140273
0.000142191
0.00014231
0.000141879
0.000141316
0.000140678
0.0001398
0.000138332
0.00013573
0.000131191
0.000138497
0.000138484
0.000138473
0.000138474
0.000138489
0.000138514
0.00013853
0.000138483
0.00013822
0.000137301
0.000138442
0.000138438
0.000138428
0.000138419
0.000138409
0.000138394
0.000138356
0.000138269
0.000138093
0.000137835
0.000138408
0.000138405
0.000138397
0.000138384
0.000138367
0.000138342
0.0001383
0.000138233
0.000138142
0.000138055
0.000138388
0.000138385
0.000138379
0.000138368
0.000138352
0.00013833
0.000138299
0.000138257
0.000138211
0.000138177
0.000138377
0.000138375
0.00013837
0.000138362
0.000138351
0.000138336
0.000138316
0.000138292
0.000138269
0.000138254
0.000138371
0.00013837
0.000138367
0.000138362
0.000138355
0.000138346
0.000138334
0.000138322
0.00013831
0.000138303
0.000138369
0.000138368
0.000138366
0.000138363
0.00013836
0.000138355
0.000138349
0.000138342
0.000138337
0.000138334
0.000138368
0.000138367
0.000138366
0.000138365
0.000138363
0.000138361
0.000138358
0.000138355
0.000138352
0.000138351
0.000138367
0.000138367
0.000138367
0.000138366
0.000138365
0.000138364
0.000138362
0.000138361
0.00013836
0.000138359
0.000138367
0.000138367
0.000138367
0.000138366
0.000138366
0.000138365
0.000138365
0.000138364
0.000138364
0.000138363
0.000138367
0.000138367
0.000138367
0.000138367
0.000138367
0.000138367
0.000138367
0.000138367
0.000138367
0.000138367
0.000138367
0.000138367
0.000138367
0.000138367
0.000138367
0.000138367
0.000138367
0.000138367
0.000138367
0.000138367
0.000138367
0.000138367
0.000138367
0.000138367
0.000138367
0.000138367
0.000138367
0.000138367
0.000138367
0.000138367
0.000138367
0.000138367
0.000138367
0.000138367
0.000138367
0.000138367
0.000138367
0.000138367
0.000138367
0.000138367
0.000138367
0.000138367
0.000138367
0.000138367
0.000138367
0.000138367
0.000138367
0.000138367
0.000138367
0.000138367
0.000138367
0.000138367
0.000138367
0.000138367
0.000138367
0.000138367
0.000138367
0.000138367
0.000138367
0.000138367
0.000138367
0.000138367
0.000138367
0.000138367
0.000138367
0.000138367
0.000138367
0.000138367
0.000138367
0.000138367
0.000138367
0.000138367
0.000138367
0.000138367
0.000138367
0.000138367
0.000138367
0.000138367
0.000138367
0.000138367
0.000138367
0.000138367
0.000138367
0.000138367
0.000138367
0.000138367
0.000138367
0.000138367
0.000138367
0.000138367
0.000138367
0.000138367
0.000138367
0.000138367
0.000138367
0.000138367
0.000138367
0.000138367
0.000138367
0.000138367
)
;

boundaryField
{
    defaultFaces
    {
        type            empty;
    }
}


// ************************************************************************* //
