/*--------------------------------*- C++ -*----------------------------------*\
  =========                 |
  \\      /  F ield         | OpenFOAM: The Open Source CFD Toolbox
   \\    /   O peration     | Website:  https://openfoam.org
    \\  /    A nd           | Version:  11
     \\/     M anipulation  |
\*---------------------------------------------------------------------------*/
FoamFile
{
    format      ascii;
    class       volScalarField;
    location    "2";
    object      epsilon;
}
// * * * * * * * * * * * * * * * * * * * * * * * * * * * * * * * * * * * * * //

dimensions      [0 2 -3 0 0 0 0];

internalField   nonuniform List<scalar> 
700
(
0.000303923
0.000303923
0.000303923
0.000303923
0.000303923
0.000303923
0.000303923
0.000303923
0.000303923
0.000303923
0.000303923
0.000303923
0.000303923
0.000303923
0.000303923
0.000303923
0.000303923
0.000303923
0.000303923
0.000303923
0.000303923
0.000303923
0.000303923
0.000303923
0.000303923
0.000303923
0.000303923
0.000303923
0.000303923
0.000303923
0.000303923
0.000303923
0.000303923
0.000303923
0.000303923
0.000303923
0.000303923
0.000303923
0.000303923
0.000303923
0.000303923
0.000303923
0.000303923
0.000303923
0.000303923
0.000303923
0.000303923
0.000303923
0.000303923
0.000303923
0.000303923
0.000303923
0.000303923
0.000303923
0.000303923
0.000303923
0.000303923
0.000303923
0.000303923
0.000303923
0.000303923
0.000303923
0.000303923
0.000303923
0.000303923
0.000303923
0.000303923
0.000303923
0.000303923
0.000303923
0.000303924
0.000303923
0.000303923
0.000303923
0.000303923
0.000303923
0.000303923
0.000303923
0.000303923
0.000303923
0.000303956
0.000303933
0.000303925
0.000303923
0.000303923
0.000303923
0.000303924
0.000303924
0.000303921
0.000303907
0.000305446
0.000304333
0.000303992
0.000303931
0.000303927
0.000303938
0.000303963
0.000303983
0.000303886
0.000303221
0.000320333
0.000309243
0.000304887
0.000304032
0.000303958
0.000304067
0.000304274
0.000304489
0.000304591
0.000304984
0.000314926
0.00030993
0.000305585
0.000304255
0.000303951
0.00030393
0.000304035
0.000304218
0.000304356
0.000304539
0.000310723
0.000309613
0.000306047
0.000304557
0.000304059
0.000303912
0.000303889
0.000303953
0.000304072
0.000304223
0.00030556
0.00030799
0.000305966
0.000304768
0.000304216
0.000303998
0.000303913
0.000303887
0.000303908
0.000303978
0.000299189
0.000304609
0.000304818
0.000304524
0.000304232
0.000304056
0.000303969
0.000303928
0.000303911
0.000303918
0.000292768
0.000300059
0.000302569
0.000303575
0.000303893
0.000303957
0.000303952
0.000303937
0.000303927
0.000303923
0.00028809
0.000296015
0.000300172
0.000302312
0.0003033
0.000303707
0.000303856
0.000303904
0.000303916
0.000303918
0.000286656
0.000294319
0.00029905
0.000301655
0.000302955
0.000303544
0.000303785
0.000303873
0.000303896
0.000303888
0.000289186
0.000295867
0.000299947
0.000302131
0.000303186
0.000303647
0.00030383
0.000303899
0.000303935
0.000303979
0.000296802
0.000300513
0.000302397
0.000303319
0.000303716
0.000303878
0.00030397
0.000304101
0.000304366
0.000304856
0.000304515
0.000303694
0.000303701
0.000303813
0.000303884
0.00030392
0.00030395
0.000304
0.000304093
0.000304213
0.000304258
0.000304039
0.000303945
0.000303923
0.000303922
0.000303925
0.000303933
0.000303948
0.000303975
0.000304006
0.000304069
0.000304007
0.000303959
0.000303936
0.000303927
0.000303925
0.000303926
0.00030393
0.000303936
0.000303943
0.000303973
0.000303956
0.00030394
0.00030393
0.000303926
0.000303924
0.000303924
0.000303925
0.000303926
0.000303927
0.000303937
0.000303933
0.000303928
0.000303925
0.000303924
0.000303923
0.000303923
0.000303923
0.000303924
0.000303924
0.000303926
0.000303926
0.000303924
0.000303924
0.000303923
0.000303923
0.000303923
0.000303923
0.000303923
0.000303923
0.000303924
0.000303924
0.000303923
0.000303923
0.000303923
0.000303923
0.000303923
0.000303923
0.000303923
0.000303923
0.000303923
0.000303923
0.000303923
0.000303923
0.000303923
0.000303923
0.000303923
0.000303923
0.000303923
0.000303923
0.000303923
0.000303923
0.000303923
0.000303923
0.000303923
0.000303923
0.000303923
0.000303923
0.000303923
0.000303923
0.000303923
0.000303923
0.000303923
0.000303923
0.000303923
0.000303923
0.000303923
0.000303923
0.000303923
0.000303923
0.000303923
0.000303923
0.000303923
0.000303923
0.000303923
0.000303923
0.000303923
0.000303923
0.000303923
0.000303923
0.000303923
0.000303923
0.000303923
0.000303923
0.000303923
0.000303923
0.000303923
0.000303923
0.000303923
0.000303923
0.000303923
0.000303923
0.000303923
0.000303923
0.000303923
0.000303923
0.000303923
0.000303923
0.000303923
0.000303923
0.000303923
0.000303923
0.000303923
0.000303923
0.000303923
0.000303923
0.000303923
0.000303923
0.000303923
0.000303923
0.000303923
0.000303923
0.000303923
0.000303923
0.000303923
0.000303923
0.000303923
0.000303923
0.000303923
0.000303923
0.000303923
0.000303923
0.000303923
0.000303923
0.000303923
0.000303923
0.000303923
0.000303923
0.000303923
0.000303923
0.000303923
0.000303923
0.000303923
0.000303923
0.000303923
0.000303923
0.000303923
0.000303923
0.000303923
0.000303923
0.000303923
0.000303923
0.000303923
0.000303923
0.000303923
0.000303923
0.000303923
0.000303923
0.000303923
0.000303923
0.000303923
0.000303923
0.000303923
0.000303923
0.000303923
0.000303923
0.000303923
0.000303923
0.000303923
0.000303923
0.000303923
0.000303923
0.000303923
0.000303923
0.000303923
0.000303923
0.000303923
0.000303923
0.000303923
0.000303923
0.000304619
0.000304817
0.000305043
0.00030526
0.000305426
0.000305522
0.000305523
0.000305447
0.00030533
0.000305203
0.000304205
0.000304383
0.000304571
0.000304701
0.000304726
0.000304649
0.000304507
0.000304342
0.000304185
0.000304045
0.000304026
0.000304119
0.000304209
0.000304243
0.000304203
0.000304114
0.000304015
0.000303935
0.000303885
0.000303869
0.000303959
0.000303993
0.000304021
0.000304019
0.000303987
0.000303946
0.000303915
0.000303901
0.000303902
0.000303912
0.000303946
0.000303953
0.000303954
0.000303946
0.000303933
0.000303922
0.000303917
0.000303918
0.000303921
0.000303922
0.000303974
0.00030397
0.00030395
0.000303934
0.000303925
0.000303921
0.00030392
0.00030392
0.000303919
0.000303918
0.000304073
0.000304081
0.000304011
0.000303957
0.000303928
0.000303915
0.00030391
0.000303909
0.000303912
0.000303931
0.000304343
0.000304457
0.000304253
0.000304071
0.000303959
0.000303898
0.000303869
0.000303859
0.000303869
0.000303912
0.000305007
0.000305549
0.000305065
0.00030455
0.000304181
0.000303933
0.000303765
0.00030362
0.000303353
0.000302714
0.000305883
0.00030823
0.000307834
0.000307161
0.000306617
0.000306194
0.000305794
0.000305035
0.000302404
0.00029357
0.000304248
0.000304074
0.000303977
0.000303939
0.000303924
0.000303908
0.00030385
0.000303647
0.000302984
0.00030092
0.000304011
0.000303972
0.000303943
0.000303928
0.000303918
0.000303898
0.000303839
0.000303684
0.000303343
0.000302809
0.000303944
0.000303936
0.000303928
0.000303924
0.000303919
0.000303908
0.000303879
0.000303811
0.000303689
0.000303549
0.000303927
0.000303926
0.000303924
0.000303923
0.000303921
0.000303917
0.000303907
0.000303884
0.000303848
0.000303813
0.000303924
0.000303924
0.000303923
0.000303923
0.000303922
0.000303921
0.000303918
0.000303912
0.000303903
0.000303895
0.000303923
0.000303923
0.000303923
0.000303923
0.000303923
0.000303923
0.000303922
0.00030392
0.000303918
0.000303917
0.000303923
0.000303923
0.000303923
0.000303923
0.000303923
0.000303923
0.000303923
0.000303922
0.000303922
0.000303922
0.000303923
0.000303923
0.000303923
0.000303923
0.000303923
0.000303923
0.000303923
0.000303923
0.000303923
0.000303923
0.000303923
0.000303923
0.000303923
0.000303923
0.000303923
0.000303923
0.000303923
0.000303923
0.000303923
0.000303923
0.000303923
0.000303923
0.000303923
0.000303923
0.000303923
0.000303923
0.000303923
0.000303923
0.000303923
0.000303923
0.000303923
0.000303923
0.000303923
0.000303923
0.000303923
0.000303923
0.000303923
0.000303923
0.000303923
0.000303923
0.000303923
0.000303923
0.000303923
0.000303923
0.000303923
0.000303923
0.000303923
0.000303923
0.000303923
0.000303923
0.000303923
0.000303923
0.000303923
0.000303923
0.000303923
0.000303923
0.000303923
0.000303923
0.000303923
0.000303923
0.000303923
0.000303923
0.000303923
0.000303923
0.000303923
0.000303923
0.000303923
0.000303923
0.000303923
0.000303923
0.000303923
0.000303923
0.000303923
0.000303923
0.000303923
0.000303923
0.000303923
0.000303923
0.000303923
0.000303923
0.000303923
0.000303923
0.000303923
0.000303923
0.000303923
0.000303923
0.000303923
0.000303923
0.000303923
0.000303923
0.000303923
0.000303923
0.000303923
0.000303923
0.000303923
0.000303923
0.000303923
0.000303923
0.000303923
0.000303923
0.000303923
0.000303923
0.000303923
0.000303923
0.000303923
0.000303923
0.000303923
0.000303923
0.000303923
0.000303923
0.000303923
0.000303923
0.000303923
0.000303923
0.000303923
0.000303923
0.000303923
0.000303923
0.000303923
0.000303923
0.000303923
0.000303923
0.000303923
0.000303923
0.000303923
0.000303923
0.000303923
0.000303923
0.000303923
0.000303923
)
;

boundaryField
{
    defaultFaces
    {
        type            empty;
    }
}


// ************************************************************************* //
