/*--------------------------------*- C++ -*----------------------------------*\
  =========                 |
  \\      /  F ield         | OpenFOAM: The Open Source CFD Toolbox
   \\    /   O peration     | Website:  https://openfoam.org
    \\  /    A nd           | Version:  11
     \\/     M anipulation  |
\*---------------------------------------------------------------------------*/
FoamFile
{
    format      ascii;
    class       volScalarField;
    location    "2";
    object      k;
}
// * * * * * * * * * * * * * * * * * * * * * * * * * * * * * * * * * * * * * //

dimensions      [0 2 -2 0 0 0 0];

internalField   nonuniform List<scalar> 
700
(
0.00071289
0.00071289
0.00071289
0.00071289
0.00071289
0.00071289
0.00071289
0.00071289
0.00071289
0.00071289
0.00071289
0.00071289
0.00071289
0.00071289
0.00071289
0.00071289
0.00071289
0.00071289
0.00071289
0.00071289
0.00071289
0.00071289
0.00071289
0.00071289
0.00071289
0.00071289
0.00071289
0.00071289
0.00071289
0.00071289
0.00071289
0.00071289
0.00071289
0.00071289
0.00071289
0.00071289
0.00071289
0.00071289
0.00071289
0.00071289
0.00071289
0.00071289
0.00071289
0.00071289
0.00071289
0.00071289
0.00071289
0.00071289
0.00071289
0.00071289
0.00071289
0.00071289
0.00071289
0.00071289
0.00071289
0.00071289
0.00071289
0.00071289
0.00071289
0.00071289
0.00071289
0.00071289
0.00071289
0.00071289
0.00071289
0.00071289
0.00071289
0.00071289
0.00071289
0.00071289
0.000712892
0.000712891
0.00071289
0.00071289
0.00071289
0.00071289
0.00071289
0.00071289
0.00071289
0.000712889
0.000712989
0.000712924
0.000712897
0.000712891
0.000712891
0.000712891
0.000712893
0.000712894
0.000712883
0.000712843
0.000717017
0.000714097
0.000713115
0.000712919
0.000712903
0.000712933
0.000712993
0.000713027
0.000712728
0.00071104
0.000754842
0.000727194
0.000715729
0.000713261
0.00071299
0.000713227
0.000713619
0.000713926
0.000713924
0.000714632
0.000741534
0.000728923
0.000717664
0.000713942
0.000713023
0.000712947
0.000713191
0.000713533
0.000713671
0.000713862
0.000730519
0.00072775
0.000718812
0.000714801
0.000713351
0.00071291
0.00071286
0.000713027
0.000713261
0.000713483
0.000717129
0.000723136
0.000718356
0.000715314
0.000713797
0.000713148
0.000712894
0.000712832
0.000712893
0.000713033
0.000700869
0.000714116
0.000715013
0.000714475
0.000713778
0.000713301
0.000713042
0.000712916
0.00071287
0.000712886
0.000684681
0.000702324
0.000708852
0.000711691
0.0007127
0.000712956
0.00071297
0.000712935
0.000712905
0.000712892
0.000672989
0.000692022
0.000702461
0.000708136
0.000710925
0.000712158
0.000712645
0.000712816
0.000712866
0.000712877
0.00066946
0.00068778
0.000699531
0.000706326
0.00070992
0.000711654
0.000712414
0.000712715
0.000712814
0.000712821
0.000675876
0.000691839
0.000701973
0.000707685
0.000710616
0.000711982
0.000712562
0.000712796
0.000712906
0.000713006
0.000694863
0.000703784
0.000708565
0.000711057
0.000712209
0.0007127
0.000712948
0.000713213
0.00071369
0.000714538
0.000713773
0.000711953
0.000712113
0.000712498
0.00071274
0.00071286
0.000712936
0.000713037
0.000713207
0.000713418
0.00071355
0.000713062
0.000712878
0.000712856
0.000712873
0.00071289
0.000712909
0.000712941
0.000712991
0.000713047
0.000713233
0.000713087
0.000712975
0.000712921
0.000712901
0.000712895
0.000712897
0.000712905
0.000712918
0.00071293
0.000713025
0.000712982
0.000712938
0.000712911
0.000712898
0.000712893
0.000712893
0.000712894
0.000712897
0.000712899
0.000712933
0.000712921
0.000712908
0.000712898
0.000712893
0.000712891
0.000712891
0.000712891
0.000712892
0.000712892
0.000712902
0.000712899
0.000712895
0.000712893
0.000712891
0.000712891
0.00071289
0.00071289
0.00071289
0.000712891
0.000712893
0.000712892
0.000712891
0.000712891
0.00071289
0.00071289
0.00071289
0.00071289
0.00071289
0.00071289
0.000712891
0.000712891
0.00071289
0.00071289
0.00071289
0.00071289
0.00071289
0.00071289
0.00071289
0.00071289
0.00071289
0.00071289
0.00071289
0.00071289
0.00071289
0.00071289
0.00071289
0.00071289
0.00071289
0.00071289
0.00071289
0.00071289
0.00071289
0.00071289
0.00071289
0.00071289
0.00071289
0.00071289
0.00071289
0.00071289
0.00071289
0.00071289
0.00071289
0.00071289
0.00071289
0.00071289
0.00071289
0.00071289
0.00071289
0.00071289
0.00071289
0.00071289
0.00071289
0.00071289
0.00071289
0.00071289
0.00071289
0.00071289
0.00071289
0.00071289
0.00071289
0.00071289
0.00071289
0.00071289
0.00071289
0.00071289
0.00071289
0.00071289
0.00071289
0.00071289
0.00071289
0.00071289
0.00071289
0.00071289
0.00071289
0.00071289
0.00071289
0.00071289
0.00071289
0.00071289
0.00071289
0.00071289
0.00071289
0.00071289
0.00071289
0.00071289
0.00071289
0.00071289
0.00071289
0.00071289
0.00071289
0.00071289
0.00071289
0.00071289
0.00071289
0.00071289
0.00071289
0.00071289
0.00071289
0.00071289
0.00071289
0.00071289
0.00071289
0.00071289
0.00071289
0.00071289
0.00071289
0.00071289
0.00071289
0.00071289
0.00071289
0.00071289
0.00071289
0.00071289
0.00071289
0.00071289
0.00071289
0.00071289
0.00071289
0.00071289
0.00071289
0.00071289
0.00071289
0.00071289
0.00071289
0.00071289
0.00071289
0.00071289
0.00071289
0.00071289
0.00071289
0.00071289
0.00071289
0.00071289
0.00071289
0.00071289
0.00071289
0.00071289
0.00071289
0.00071289
0.000714111
0.000714449
0.000714833
0.000715199
0.000715476
0.000715635
0.000715645
0.000715527
0.000715335
0.00071512
0.0007134
0.000713708
0.000714032
0.000714255
0.000714298
0.00071417
0.00071393
0.000713649
0.000713376
0.00071313
0.000713087
0.000713251
0.000713409
0.000713469
0.000713399
0.000713243
0.00071307
0.000712926
0.000712833
0.000712797
0.000712967
0.000713028
0.000713078
0.000713073
0.000713015
0.00071294
0.000712881
0.000712853
0.000712853
0.000712869
0.000712957
0.000712967
0.000712961
0.000712941
0.000712912
0.00071289
0.00071288
0.00071288
0.000712884
0.000712888
0.000713046
0.00071304
0.000712978
0.000712929
0.000712899
0.000712885
0.000712881
0.00071288
0.000712879
0.000712879
0.000713323
0.000713373
0.000713176
0.000713012
0.000712918
0.000712874
0.000712856
0.000712852
0.000712862
0.000712911
0.000714033
0.000714416
0.00071389
0.000713377
0.000713048
0.000712862
0.000712766
0.000712728
0.000712731
0.000712776
0.000715692
0.00071724
0.000716082
0.000714749
0.000713761
0.000713085
0.000712609
0.000712162
0.000711318
0.000709498
0.000717826
0.000723776
0.000722901
0.000721222
0.000719833
0.000718742
0.000717666
0.00071555
0.000708597
0.000687187
0.000713475
0.000713171
0.000712995
0.000712923
0.000712893
0.00071285
0.000712705
0.000712209
0.000710633
0.00070578
0.000713056
0.000712986
0.000712929
0.000712899
0.000712872
0.000712813
0.00071265
0.000712244
0.000711393
0.000710103
0.000712932
0.000712916
0.000712902
0.000712891
0.000712876
0.000712841
0.000712754
0.000712563
0.000712238
0.000711881
0.0007129
0.000712896
0.000712893
0.000712889
0.000712884
0.000712869
0.000712835
0.000712767
0.000712664
0.000712567
0.000712892
0.000712891
0.000712891
0.00071289
0.000712888
0.000712883
0.000712873
0.000712852
0.000712824
0.0007128
0.000712891
0.00071289
0.00071289
0.00071289
0.000712889
0.000712888
0.000712885
0.00071288
0.000712873
0.000712868
0.00071289
0.00071289
0.00071289
0.00071289
0.00071289
0.00071289
0.000712889
0.000712888
0.000712886
0.000712885
0.00071289
0.00071289
0.00071289
0.00071289
0.00071289
0.00071289
0.00071289
0.00071289
0.000712889
0.000712889
0.00071289
0.00071289
0.00071289
0.00071289
0.00071289
0.00071289
0.00071289
0.00071289
0.00071289
0.00071289
0.00071289
0.00071289
0.00071289
0.00071289
0.00071289
0.00071289
0.00071289
0.00071289
0.00071289
0.00071289
0.00071289
0.00071289
0.00071289
0.00071289
0.00071289
0.00071289
0.00071289
0.00071289
0.00071289
0.00071289
0.00071289
0.00071289
0.00071289
0.00071289
0.00071289
0.00071289
0.00071289
0.00071289
0.00071289
0.00071289
0.00071289
0.00071289
0.00071289
0.00071289
0.00071289
0.00071289
0.00071289
0.00071289
0.00071289
0.00071289
0.00071289
0.00071289
0.00071289
0.00071289
0.00071289
0.00071289
0.00071289
0.00071289
0.00071289
0.00071289
0.00071289
0.00071289
0.00071289
0.00071289
0.00071289
0.00071289
0.00071289
0.00071289
0.00071289
0.00071289
0.00071289
0.00071289
0.00071289
0.00071289
0.00071289
0.00071289
0.00071289
0.00071289
0.00071289
0.00071289
0.00071289
0.00071289
0.00071289
0.00071289
0.00071289
0.00071289
0.00071289
0.00071289
0.00071289
0.00071289
0.00071289
0.00071289
0.00071289
0.00071289
0.00071289
0.00071289
0.00071289
0.00071289
0.00071289
0.00071289
0.00071289
0.00071289
0.00071289
0.00071289
0.00071289
0.00071289
0.00071289
0.00071289
0.00071289
0.00071289
0.00071289
0.00071289
0.00071289
0.00071289
0.00071289
0.00071289
0.00071289
0.00071289
0.00071289
0.00071289
)
;

boundaryField
{
    defaultFaces
    {
        type            empty;
    }
}


// ************************************************************************* //
