/*--------------------------------*- C++ -*----------------------------------*\
  =========                 |
  \\      /  F ield         | OpenFOAM: The Open Source CFD Toolbox
   \\    /   O peration     | Website:  https://openfoam.org
    \\  /    A nd           | Version:  11
     \\/     M anipulation  |
\*---------------------------------------------------------------------------*/
FoamFile
{
    format      ascii;
    class       volScalarField;
    location    "2";
    object      nut;
}
// * * * * * * * * * * * * * * * * * * * * * * * * * * * * * * * * * * * * * //

dimensions      [0 2 -1 0 0 0 0];

internalField   nonuniform List<scalar> 
700
(
0.000150496
0.000150496
0.000150496
0.000150496
0.000150496
0.000150496
0.000150496
0.000150496
0.000150496
0.000150496
0.000150496
0.000150496
0.000150496
0.000150496
0.000150496
0.000150496
0.000150496
0.000150496
0.000150496
0.000150496
0.000150496
0.000150496
0.000150496
0.000150496
0.000150496
0.000150496
0.000150496
0.000150496
0.000150496
0.000150496
0.000150496
0.000150496
0.000150496
0.000150496
0.000150496
0.000150496
0.000150496
0.000150496
0.000150496
0.000150496
0.000150496
0.000150496
0.000150496
0.000150496
0.000150496
0.000150496
0.000150496
0.000150496
0.000150496
0.000150496
0.000150496
0.000150496
0.000150496
0.000150496
0.000150496
0.000150496
0.000150496
0.000150496
0.000150496
0.000150496
0.000150496
0.000150496
0.000150496
0.000150496
0.000150496
0.000150496
0.000150496
0.000150496
0.000150496
0.000150496
0.000150496
0.000150496
0.000150496
0.000150496
0.000150496
0.000150496
0.000150496
0.000150496
0.000150496
0.000150495
0.000150521
0.000150505
0.000150498
0.000150496
0.000150496
0.000150496
0.000150496
0.000150497
0.000150494
0.000150484
0.000151484
0.000150803
0.000150556
0.000150504
0.000150499
0.000150506
0.00015052
0.000150524
0.000150446
0.000150062
0.000160086
0.000153902
0.000151217
0.000150598
0.000150521
0.000150567
0.00015063
0.000150653
0.000150601
0.000150706
0.000157143
0.000154292
0.000151688
0.000150776
0.000150538
0.000150516
0.000150567
0.000150621
0.000150611
0.000150601
0.000154573
0.000153953
0.000151944
0.000150989
0.000150623
0.00015051
0.0001505
0.000150538
0.000150579
0.000150598
0.000151475
0.000152808
0.000151792
0.000151101
0.000150733
0.000150567
0.000150502
0.000150489
0.000150504
0.000150529
0.000147765
0.000150674
0.000150949
0.000150867
0.000150718
0.000150603
0.000150537
0.000150505
0.000150493
0.000150496
0.00014411
0.000147949
0.000149461
0.000150162
0.00015043
0.000150507
0.000150515
0.000150508
0.0001505
0.000150496
0.000141491
0.000145602
0.000147951
0.000149286
0.000149975
0.000150294
0.000150426
0.000150474
0.000150489
0.000150493
0.000140711
0.000144652
0.000147269
0.000148848
0.000149721
0.000150161
0.000150363
0.000150446
0.000150477
0.000150484
0.000142167
0.000145598
0.000147856
0.000149186
0.0001499
0.000150249
0.000150404
0.000150468
0.000150496
0.000150517
0.000146411
0.00014834
0.000149425
0.000150021
0.000150311
0.000150438
0.000150497
0.000150544
0.000150614
0.000150729
0.000150575
0.000150213
0.000150278
0.000150384
0.000150452
0.000150484
0.000150502
0.00015052
0.000150545
0.000150575
0.000150608
0.000150511
0.00015048
0.000150481
0.000150489
0.000150495
0.000150499
0.000150505
0.000150513
0.000150521
0.000150568
0.000150537
0.000150514
0.000150502
0.000150498
0.000150497
0.000150497
0.000150499
0.000150501
0.000150503
0.000150528
0.000150518
0.000150508
0.000150501
0.000150498
0.000150497
0.000150496
0.000150497
0.000150497
0.000150497
0.000150507
0.000150504
0.0001505
0.000150498
0.000150497
0.000150496
0.000150496
0.000150496
0.000150496
0.000150496
0.000150499
0.000150498
0.000150497
0.000150496
0.000150496
0.000150496
0.000150496
0.000150496
0.000150496
0.000150496
0.000150496
0.000150496
0.000150496
0.000150496
0.000150496
0.000150496
0.000150496
0.000150496
0.000150496
0.000150496
0.000150496
0.000150496
0.000150496
0.000150496
0.000150496
0.000150496
0.000150496
0.000150496
0.000150496
0.000150496
0.000150496
0.000150496
0.000150496
0.000150496
0.000150496
0.000150496
0.000150496
0.000150496
0.000150496
0.000150496
0.000150496
0.000150496
0.000150496
0.000150496
0.000150496
0.000150496
0.000150496
0.000150496
0.000150496
0.000150496
0.000150496
0.000150496
0.000150496
0.000150496
0.000150496
0.000150496
0.000150496
0.000150496
0.000150496
0.000150496
0.000150496
0.000150496
0.000150496
0.000150496
0.000150496
0.000150496
0.000150496
0.000150496
0.000150496
0.000150496
0.000150496
0.000150496
0.000150496
0.000150496
0.000150496
0.000150496
0.000150496
0.000150496
0.000150496
0.000150496
0.000150496
0.000150496
0.000150496
0.000150496
0.000150496
0.000150496
0.000150496
0.000150496
0.000150496
0.000150496
0.000150496
0.000150496
0.000150496
0.000150496
0.000150496
0.000150496
0.000150496
0.000150496
0.000150496
0.000150496
0.000150496
0.000150496
0.000150496
0.000150496
0.000150496
0.000150496
0.000150496
0.000150496
0.000150496
0.000150496
0.000150496
0.000150496
0.000150496
0.000150496
0.000150496
0.000150496
0.000150496
0.000150496
0.000150496
0.000150496
0.000150496
0.000150496
0.000150496
0.000150496
0.000150496
0.000150496
0.000150496
0.000150496
0.000150496
0.000150496
0.000150496
0.000150496
0.000150496
0.000150496
0.000150496
0.000150496
0.000150496
0.000150496
0.000150496
0.000150496
0.000150496
0.000150496
0.000150496
0.000150496
0.000150496
0.000150496
0.000150496
0.000150496
0.000150496
0.000150496
0.000150667
0.000150711
0.000150761
0.000150808
0.000150843
0.000150864
0.000150867
0.000150855
0.000150832
0.000150804
0.000150572
0.000150613
0.000150657
0.000150686
0.000150693
0.000150677
0.000150646
0.000150609
0.000150571
0.000150537
0.000150528
0.000150551
0.000150573
0.000150581
0.000150572
0.000150551
0.000150526
0.000150505
0.00015049
0.000150483
0.000150511
0.00015052
0.000150526
0.000150525
0.000150516
0.000150505
0.000150496
0.000150491
0.00015049
0.000150492
0.000150512
0.000150513
0.00015051
0.000150506
0.0001505
0.000150496
0.000150494
0.000150494
0.000150494
0.000150495
0.000150536
0.000150536
0.000150519
0.000150506
0.000150499
0.000150495
0.000150494
0.000150493
0.000150493
0.000150494
0.000150604
0.000150621
0.000150573
0.00015053
0.000150505
0.000150493
0.000150488
0.000150486
0.000150489
0.000150501
0.000150771
0.000150875
0.000150754
0.000150628
0.000150544
0.000150496
0.00015047
0.000150459
0.000150455
0.000150453
0.000151142
0.000151527
0.000151278
0.00015097
0.000150736
0.000150573
0.000150455
0.000150339
0.000150115
0.000149663
0.000151609
0.000152959
0.000152786
0.00015241
0.000152093
0.000151842
0.000151586
0.000151068
0.000149435
0.000144771
0.000150582
0.000150539
0.000150513
0.000150502
0.000150496
0.000150487
0.000150454
0.000150345
0.000150007
0.000148981
0.000150522
0.000150512
0.000150503
0.000150497
0.000150491
0.000150476
0.000150436
0.000150341
0.000150151
0.00014987
0.000150503
0.0001505
0.000150498
0.000150495
0.000150492
0.000150482
0.00015046
0.000150413
0.000150336
0.000150255
0.000150498
0.000150497
0.000150496
0.000150495
0.000150494
0.00015049
0.000150481
0.000150463
0.000150437
0.000150414
0.000150496
0.000150496
0.000150496
0.000150496
0.000150495
0.000150494
0.000150491
0.000150485
0.000150478
0.000150472
0.000150496
0.000150496
0.000150496
0.000150496
0.000150496
0.000150495
0.000150494
0.000150493
0.000150491
0.00015049
0.000150496
0.000150496
0.000150496
0.000150496
0.000150496
0.000150496
0.000150495
0.000150495
0.000150495
0.000150494
0.000150496
0.000150496
0.000150496
0.000150496
0.000150496
0.000150496
0.000150496
0.000150496
0.000150496
0.000150495
0.000150496
0.000150496
0.000150496
0.000150496
0.000150496
0.000150496
0.000150496
0.000150496
0.000150496
0.000150496
0.000150496
0.000150496
0.000150496
0.000150496
0.000150496
0.000150496
0.000150496
0.000150496
0.000150496
0.000150496
0.000150496
0.000150496
0.000150496
0.000150496
0.000150496
0.000150496
0.000150496
0.000150496
0.000150496
0.000150496
0.000150496
0.000150496
0.000150496
0.000150496
0.000150496
0.000150496
0.000150496
0.000150496
0.000150496
0.000150496
0.000150496
0.000150496
0.000150496
0.000150496
0.000150496
0.000150496
0.000150496
0.000150496
0.000150496
0.000150496
0.000150496
0.000150496
0.000150496
0.000150496
0.000150496
0.000150496
0.000150496
0.000150496
0.000150496
0.000150496
0.000150496
0.000150496
0.000150496
0.000150496
0.000150496
0.000150496
0.000150496
0.000150496
0.000150496
0.000150496
0.000150496
0.000150496
0.000150496
0.000150496
0.000150496
0.000150496
0.000150496
0.000150496
0.000150496
0.000150496
0.000150496
0.000150496
0.000150496
0.000150496
0.000150496
0.000150496
0.000150496
0.000150496
0.000150496
0.000150496
0.000150496
0.000150496
0.000150496
0.000150496
0.000150496
0.000150496
0.000150496
0.000150496
0.000150496
0.000150496
0.000150496
0.000150496
0.000150496
0.000150496
0.000150496
0.000150496
0.000150496
0.000150496
0.000150496
0.000150496
0.000150496
0.000150496
0.000150496
0.000150496
0.000150496
0.000150496
0.000150496
0.000150496
0.000150496
0.000150496
)
;

boundaryField
{
    defaultFaces
    {
        type            empty;
    }
}


// ************************************************************************* //
