/*--------------------------------*- C++ -*----------------------------------*\
  =========                 |
  \\      /  F ield         | OpenFOAM: The Open Source CFD Toolbox
   \\    /   O peration     | Website:  https://openfoam.org
    \\  /    A nd           | Version:  11
     \\/     M anipulation  |
\*---------------------------------------------------------------------------*/
FoamFile
{
    format      ascii;
    class       volScalarField;
    location    "7.5";
    object      epsilon;
}
// * * * * * * * * * * * * * * * * * * * * * * * * * * * * * * * * * * * * * //

dimensions      [0 2 -3 0 0 0 0];

internalField   nonuniform List<scalar> 
700
(
2.76735e-05
2.76735e-05
2.76735e-05
2.76735e-05
2.76735e-05
2.76735e-05
2.76735e-05
2.76735e-05
2.76735e-05
2.76735e-05
2.76735e-05
2.76735e-05
2.76735e-05
2.76735e-05
2.76735e-05
2.76735e-05
2.76735e-05
2.76735e-05
2.76735e-05
2.76735e-05
2.76735e-05
2.76735e-05
2.76735e-05
2.76735e-05
2.76735e-05
2.76735e-05
2.76735e-05
2.76735e-05
2.76735e-05
2.76735e-05
2.76735e-05
2.76735e-05
2.76735e-05
2.76735e-05
2.76735e-05
2.76735e-05
2.76735e-05
2.76735e-05
2.76735e-05
2.76735e-05
2.76735e-05
2.76735e-05
2.76735e-05
2.76735e-05
2.76735e-05
2.76735e-05
2.76735e-05
2.76735e-05
2.76735e-05
2.76735e-05
2.76735e-05
2.76735e-05
2.76735e-05
2.76735e-05
2.76735e-05
2.76735e-05
2.76735e-05
2.76735e-05
2.76735e-05
2.76735e-05
2.76736e-05
2.76736e-05
2.76736e-05
2.76735e-05
2.76735e-05
2.76735e-05
2.76735e-05
2.76735e-05
2.76735e-05
2.76735e-05
2.76756e-05
2.76749e-05
2.76743e-05
2.76738e-05
2.76736e-05
2.76736e-05
2.76735e-05
2.76733e-05
2.76731e-05
2.76728e-05
2.77128e-05
2.7699e-05
2.76861e-05
2.76786e-05
2.76752e-05
2.76738e-05
2.76726e-05
2.76702e-05
2.76656e-05
2.76599e-05
2.82616e-05
2.80024e-05
2.78197e-05
2.77275e-05
2.76894e-05
2.76734e-05
2.76597e-05
2.76343e-05
2.75807e-05
2.74737e-05
3.07255e-05
2.92175e-05
2.82992e-05
2.79013e-05
2.77383e-05
2.76632e-05
2.76083e-05
2.75507e-05
2.74884e-05
2.74702e-05
3.00219e-05
2.93303e-05
2.85269e-05
2.80701e-05
2.78391e-05
2.77265e-05
2.76619e-05
2.76065e-05
2.75432e-05
2.74871e-05
2.9039e-05
2.89933e-05
2.85141e-05
2.81628e-05
2.79373e-05
2.78048e-05
2.77283e-05
2.76772e-05
2.76299e-05
2.75785e-05
2.78761e-05
2.83164e-05
2.82093e-05
2.80694e-05
2.79419e-05
2.78434e-05
2.77745e-05
2.77273e-05
2.76911e-05
2.76558e-05
2.66795e-05
2.74195e-05
2.76453e-05
2.77466e-05
2.77769e-05
2.77717e-05
2.77527e-05
2.77311e-05
2.77107e-05
2.7691e-05
2.56471e-05
2.6502e-05
2.69634e-05
2.7266e-05
2.74557e-05
2.75682e-05
2.76307e-05
2.76623e-05
2.76761e-05
2.76798e-05
2.49829e-05
2.5822e-05
2.64025e-05
2.68235e-05
2.71211e-05
2.73254e-05
2.74614e-05
2.75489e-05
2.76031e-05
2.76354e-05
2.48359e-05
2.56019e-05
2.61977e-05
2.66447e-05
2.69731e-05
2.7209e-05
2.73743e-05
2.7487e-05
2.75618e-05
2.761e-05
2.52726e-05
2.59354e-05
2.64473e-05
2.68273e-05
2.71047e-05
2.73033e-05
2.74429e-05
2.75395e-05
2.76061e-05
2.76525e-05
2.63464e-05
2.67403e-05
2.70226e-05
2.72365e-05
2.73944e-05
2.75083e-05
2.75908e-05
2.76535e-05
2.77071e-05
2.77608e-05
2.73381e-05
2.73047e-05
2.73723e-05
2.74579e-05
2.75337e-05
2.75932e-05
2.7638e-05
2.76721e-05
2.76988e-05
2.77182e-05
2.74918e-05
2.74928e-05
2.7519e-05
2.75571e-05
2.7595e-05
2.76273e-05
2.76527e-05
2.76722e-05
2.76868e-05
2.76962e-05
2.7584e-05
2.75875e-05
2.7599e-05
2.76157e-05
2.76335e-05
2.76494e-05
2.76625e-05
2.76727e-05
2.76801e-05
2.76846e-05
2.7633e-05
2.76351e-05
2.764e-05
2.76471e-05
2.76549e-05
2.76622e-05
2.76683e-05
2.76732e-05
2.76767e-05
2.76787e-05
2.76568e-05
2.76577e-05
2.76597e-05
2.76625e-05
2.76656e-05
2.76687e-05
2.76714e-05
2.76735e-05
2.7675e-05
2.76759e-05
2.76673e-05
2.76676e-05
2.76684e-05
2.76694e-05
2.76706e-05
2.76717e-05
2.76728e-05
2.76736e-05
2.76742e-05
2.76746e-05
2.76715e-05
2.76716e-05
2.76718e-05
2.76722e-05
2.76726e-05
2.7673e-05
2.76733e-05
2.76736e-05
2.76739e-05
2.7674e-05
2.7673e-05
2.7673e-05
2.76731e-05
2.76732e-05
2.76733e-05
2.76734e-05
2.76735e-05
2.76736e-05
2.76737e-05
2.76737e-05
2.76735e-05
2.76735e-05
2.76735e-05
2.76735e-05
2.76735e-05
2.76735e-05
2.76736e-05
2.76736e-05
2.76736e-05
2.76736e-05
2.76736e-05
2.76736e-05
2.76736e-05
2.76736e-05
2.76736e-05
2.76736e-05
2.76736e-05
2.76736e-05
2.76736e-05
2.76736e-05
2.76735e-05
2.76735e-05
2.76735e-05
2.76735e-05
2.76735e-05
2.76735e-05
2.76735e-05
2.76735e-05
2.76735e-05
2.76735e-05
2.76735e-05
2.76735e-05
2.76735e-05
2.76735e-05
2.76735e-05
2.76735e-05
2.76735e-05
2.76735e-05
2.76735e-05
2.76735e-05
2.76735e-05
2.76735e-05
2.76735e-05
2.76735e-05
2.76735e-05
2.76735e-05
2.76735e-05
2.76735e-05
2.76735e-05
2.76735e-05
2.76735e-05
2.76735e-05
2.76735e-05
2.76735e-05
2.76735e-05
2.76735e-05
2.76735e-05
2.76735e-05
2.76735e-05
2.76735e-05
2.76735e-05
2.76735e-05
2.76735e-05
2.76735e-05
2.76735e-05
2.76735e-05
2.76735e-05
2.76735e-05
2.76735e-05
2.76735e-05
2.76735e-05
2.76735e-05
2.76735e-05
2.76735e-05
2.76735e-05
2.76735e-05
2.76735e-05
2.76735e-05
2.76735e-05
2.76735e-05
2.76735e-05
2.76735e-05
2.76735e-05
2.76735e-05
2.76735e-05
2.76735e-05
2.76735e-05
2.76735e-05
2.76735e-05
2.76735e-05
2.76735e-05
2.76735e-05
2.76735e-05
2.76735e-05
2.76735e-05
2.76735e-05
2.76735e-05
2.76735e-05
2.76735e-05
2.76735e-05
2.76735e-05
2.76735e-05
2.76735e-05
2.76735e-05
2.76735e-05
2.76735e-05
2.76735e-05
2.76735e-05
2.76735e-05
2.76735e-05
2.76735e-05
2.76735e-05
2.76735e-05
2.76735e-05
2.76735e-05
2.76735e-05
2.76735e-05
2.76735e-05
2.76735e-05
2.76735e-05
2.77541e-05
2.77681e-05
2.77835e-05
2.77978e-05
2.78081e-05
2.78133e-05
2.78135e-05
2.78076e-05
2.7798e-05
2.77871e-05
2.77261e-05
2.774e-05
2.77533e-05
2.77609e-05
2.77598e-05
2.77504e-05
2.77349e-05
2.77159e-05
2.76957e-05
2.76753e-05
2.77131e-05
2.77228e-05
2.77298e-05
2.77297e-05
2.77213e-05
2.77066e-05
2.76887e-05
2.767e-05
2.76516e-05
2.76339e-05
2.77096e-05
2.77161e-05
2.77177e-05
2.77127e-05
2.7702e-05
2.76886e-05
2.76751e-05
2.76632e-05
2.76536e-05
2.76465e-05
2.77164e-05
2.77226e-05
2.77199e-05
2.77107e-05
2.76984e-05
2.76866e-05
2.76772e-05
2.76713e-05
2.76694e-05
2.76728e-05
2.7736e-05
2.77486e-05
2.77421e-05
2.77262e-05
2.77087e-05
2.7694e-05
2.76835e-05
2.76772e-05
2.76749e-05
2.76772e-05
2.7773e-05
2.78056e-05
2.77959e-05
2.77677e-05
2.77373e-05
2.77116e-05
2.76914e-05
2.76748e-05
2.76593e-05
2.76441e-05
2.78347e-05
2.79128e-05
2.79008e-05
2.78519e-05
2.77976e-05
2.77485e-05
2.77033e-05
2.76558e-05
2.76012e-05
2.75461e-05
2.79336e-05
2.81003e-05
2.80854e-05
2.80052e-05
2.79137e-05
2.78239e-05
2.77258e-05
2.75988e-05
2.74308e-05
2.72662e-05
2.80389e-05
2.84125e-05
2.8431e-05
2.83454e-05
2.82372e-05
2.81174e-05
2.79545e-05
2.76781e-05
2.71733e-05
2.6266e-05
2.77251e-05
2.77122e-05
2.77022e-05
2.76975e-05
2.76974e-05
2.77002e-05
2.77017e-05
2.76909e-05
2.76371e-05
2.74525e-05
2.76991e-05
2.76952e-05
2.769e-05
2.76857e-05
2.76823e-05
2.76781e-05
2.767e-05
2.76519e-05
2.76163e-05
2.75643e-05
2.76859e-05
2.76844e-05
2.76815e-05
2.76781e-05
2.76742e-05
2.76688e-05
2.76604e-05
2.76471e-05
2.76289e-05
2.76114e-05
2.76793e-05
2.76785e-05
2.76768e-05
2.76744e-05
2.76713e-05
2.76669e-05
2.76608e-05
2.76528e-05
2.76438e-05
2.7637e-05
2.7676e-05
2.76756e-05
2.76746e-05
2.7673e-05
2.76709e-05
2.76681e-05
2.76643e-05
2.76599e-05
2.76555e-05
2.76526e-05
2.76746e-05
2.76743e-05
2.76737e-05
2.76728e-05
2.76715e-05
2.76699e-05
2.76678e-05
2.76655e-05
2.76634e-05
2.76621e-05
2.76739e-05
2.76738e-05
2.76735e-05
2.7673e-05
2.76723e-05
2.76714e-05
2.76703e-05
2.76692e-05
2.76682e-05
2.76676e-05
2.76737e-05
2.76736e-05
2.76734e-05
2.76732e-05
2.76728e-05
2.76724e-05
2.76719e-05
2.76714e-05
2.76709e-05
2.76707e-05
2.76736e-05
2.76735e-05
2.76735e-05
2.76733e-05
2.76732e-05
2.7673e-05
2.76727e-05
2.76725e-05
2.76723e-05
2.76722e-05
2.76736e-05
2.76735e-05
2.76735e-05
2.76734e-05
2.76733e-05
2.76732e-05
2.76731e-05
2.7673e-05
2.76729e-05
2.76729e-05
2.76735e-05
2.76735e-05
2.76735e-05
2.76735e-05
2.76735e-05
2.76735e-05
2.76735e-05
2.76735e-05
2.76735e-05
2.76735e-05
2.76735e-05
2.76735e-05
2.76735e-05
2.76735e-05
2.76735e-05
2.76735e-05
2.76735e-05
2.76735e-05
2.76735e-05
2.76735e-05
2.76735e-05
2.76735e-05
2.76735e-05
2.76735e-05
2.76735e-05
2.76735e-05
2.76735e-05
2.76735e-05
2.76735e-05
2.76735e-05
2.76735e-05
2.76735e-05
2.76735e-05
2.76735e-05
2.76735e-05
2.76735e-05
2.76735e-05
2.76735e-05
2.76735e-05
2.76735e-05
2.76735e-05
2.76735e-05
2.76735e-05
2.76735e-05
2.76735e-05
2.76735e-05
2.76735e-05
2.76735e-05
2.76735e-05
2.76735e-05
2.76735e-05
2.76735e-05
2.76735e-05
2.76735e-05
2.76735e-05
2.76735e-05
2.76735e-05
2.76735e-05
2.76735e-05
2.76735e-05
2.76735e-05
2.76735e-05
2.76735e-05
2.76735e-05
2.76735e-05
2.76735e-05
2.76735e-05
2.76735e-05
2.76735e-05
2.76735e-05
2.76735e-05
2.76735e-05
2.76735e-05
2.76735e-05
2.76735e-05
2.76735e-05
2.76735e-05
2.76735e-05
2.76735e-05
2.76735e-05
2.76735e-05
2.76735e-05
2.76735e-05
2.76735e-05
2.76735e-05
2.76735e-05
2.76735e-05
2.76735e-05
2.76735e-05
2.76735e-05
2.76735e-05
2.76735e-05
2.76735e-05
2.76735e-05
2.76735e-05
2.76735e-05
2.76735e-05
2.76735e-05
2.76735e-05
2.76735e-05
)
;

boundaryField
{
    defaultFaces
    {
        type            empty;
    }
}


// ************************************************************************* //
