/*--------------------------------*- C++ -*----------------------------------*\
  =========                 |
  \\      /  F ield         | OpenFOAM: The Open Source CFD Toolbox
   \\    /   O peration     | Website:  https://openfoam.org
    \\  /    A nd           | Version:  11
     \\/     M anipulation  |
\*---------------------------------------------------------------------------*/
FoamFile
{
    format      ascii;
    class       volScalarField;
    location    "7.5";
    object      k;
}
// * * * * * * * * * * * * * * * * * * * * * * * * * * * * * * * * * * * * * //

dimensions      [0 2 -2 0 0 0 0];

internalField   nonuniform List<scalar> 
700
(
0.000205112
0.000205112
0.000205112
0.000205112
0.000205112
0.000205112
0.000205112
0.000205112
0.000205112
0.000205112
0.000205112
0.000205112
0.000205112
0.000205112
0.000205112
0.000205112
0.000205112
0.000205112
0.000205112
0.000205112
0.000205112
0.000205112
0.000205112
0.000205112
0.000205112
0.000205112
0.000205112
0.000205112
0.000205112
0.000205112
0.000205112
0.000205112
0.000205112
0.000205112
0.000205112
0.000205112
0.000205112
0.000205112
0.000205112
0.000205112
0.000205112
0.000205112
0.000205112
0.000205112
0.000205112
0.000205112
0.000205112
0.000205112
0.000205112
0.000205112
0.000205112
0.000205112
0.000205112
0.000205112
0.000205112
0.000205112
0.000205112
0.000205112
0.000205112
0.000205112
0.000205113
0.000205113
0.000205112
0.000205112
0.000205112
0.000205112
0.000205112
0.000205112
0.000205112
0.000205112
0.000205132
0.000205126
0.00020512
0.000205116
0.000205113
0.000205112
0.000205111
0.00020511
0.000205108
0.000205105
0.000205465
0.000205349
0.000205234
0.000205164
0.00020513
0.000205114
0.000205101
0.000205078
0.000205039
0.000204992
0.000209968
0.000207933
0.00020643
0.000205626
0.000205269
0.000205106
0.000204971
0.000204746
0.000204313
0.000203495
0.000228793
0.000217411
0.000210318
0.00020711
0.000205717
0.000205037
0.000204548
0.000204066
0.000203567
0.000203409
0.00022346
0.00021826
0.000212109
0.000208497
0.000206587
0.000205604
0.000205018
0.000204531
0.000204006
0.000203553
0.00021577
0.000215507
0.000211917
0.000209204
0.000207398
0.000206287
0.000205612
0.000205146
0.000204728
0.000204293
0.000206638
0.000210054
0.000209352
0.000208342
0.000207373
0.00020659
0.000206014
0.0002056
0.000205271
0.000204956
0.000197315
0.000202944
0.000204759
0.000205621
0.000205921
0.000205921
0.00020579
0.00020562
0.000205448
0.000205273
0.000189355
0.000195782
0.000199326
0.000201699
0.000203226
0.000204161
0.0002047
0.000204986
0.000205119
0.000205161
0.000184287
0.000190543
0.000194929
0.000198161
0.000200489
0.000202123
0.00020324
0.00020398
0.000204454
0.000204747
0.000183199
0.000188884
0.000193354
0.000196754
0.000199297
0.000201162
0.000202499
0.000203436
0.000204078
0.000204506
0.000186558
0.000191475
0.000195315
0.000198207
0.000200358
0.000201932
0.000203062
0.00020386
0.000204418
0.000204806
0.000194709
0.000197647
0.000199788
0.000201444
0.000202691
0.000203609
0.000204275
0.000204766
0.000205151
0.000205491
0.000202221
0.000201998
0.000202541
0.00020323
0.00020385
0.000204344
0.000204715
0.000204989
0.00020519
0.000205329
0.000203485
0.000203509
0.000203734
0.000204055
0.000204377
0.000204654
0.000204872
0.000205036
0.000205153
0.000205228
0.00020427
0.000204307
0.000204412
0.000204561
0.000204719
0.000204862
0.00020498
0.000205069
0.000205133
0.000205172
0.000204707
0.000204729
0.000204778
0.000204845
0.000204919
0.000204988
0.000205046
0.000205091
0.000205123
0.000205142
0.000204932
0.000204942
0.000204963
0.000204992
0.000205025
0.000205056
0.000205082
0.000205103
0.000205118
0.000205127
0.000205039
0.000205043
0.000205051
0.000205063
0.000205076
0.000205089
0.0002051
0.000205109
0.000205116
0.000205119
0.000205085
0.000205087
0.00020509
0.000205094
0.000205099
0.000205104
0.000205108
0.000205112
0.000205114
0.000205115
0.000205104
0.000205104
0.000205105
0.000205106
0.000205108
0.00020511
0.000205111
0.000205112
0.000205113
0.000205114
0.00020511
0.00020511
0.00020511
0.000205111
0.000205111
0.000205112
0.000205112
0.000205112
0.000205113
0.000205113
0.000205112
0.000205112
0.000205112
0.000205112
0.000205112
0.000205112
0.000205112
0.000205112
0.000205112
0.000205112
0.000205112
0.000205112
0.000205112
0.000205112
0.000205112
0.000205112
0.000205112
0.000205112
0.000205112
0.000205112
0.000205112
0.000205112
0.000205112
0.000205112
0.000205112
0.000205112
0.000205112
0.000205112
0.000205112
0.000205112
0.000205112
0.000205112
0.000205112
0.000205112
0.000205112
0.000205112
0.000205112
0.000205112
0.000205112
0.000205112
0.000205112
0.000205112
0.000205112
0.000205112
0.000205112
0.000205112
0.000205112
0.000205112
0.000205112
0.000205112
0.000205112
0.000205112
0.000205112
0.000205112
0.000205112
0.000205112
0.000205112
0.000205112
0.000205112
0.000205112
0.000205112
0.000205112
0.000205112
0.000205112
0.000205112
0.000205112
0.000205112
0.000205112
0.000205112
0.000205112
0.000205112
0.000205112
0.000205112
0.000205112
0.000205112
0.000205112
0.000205112
0.000205112
0.000205112
0.000205112
0.000205112
0.000205112
0.000205112
0.000205112
0.000205112
0.000205112
0.000205112
0.000205112
0.000205112
0.000205112
0.000205112
0.000205112
0.000205112
0.000205112
0.000205112
0.000205112
0.000205112
0.000205112
0.000205112
0.000205112
0.000205112
0.000205112
0.000205112
0.000205112
0.000205112
0.000205112
0.000205112
0.000205112
0.000205112
0.000205112
0.000205533
0.000205595
0.000205663
0.000205724
0.000205766
0.000205783
0.000205777
0.000205742
0.00020569
0.000205631
0.000205419
0.00020548
0.000205534
0.000205558
0.000205536
0.000205471
0.000205374
0.000205255
0.000205126
0.00020499
0.00020538
0.000205423
0.000205446
0.000205429
0.000205365
0.000205264
0.000205141
0.000205007
0.000204867
0.000204723
0.000205394
0.000205427
0.000205424
0.000205378
0.000205298
0.000205199
0.000205097
0.000205001
0.000204917
0.000204852
0.000205476
0.00020552
0.000205493
0.000205418
0.00020532
0.000205224
0.000205145
0.000205092
0.000205072
0.000205101
0.000205651
0.000205756
0.000205708
0.00020558
0.000205434
0.000205307
0.000205212
0.000205151
0.000205127
0.000205148
0.000205954
0.000206225
0.000206161
0.00020594
0.000205689
0.000205467
0.000205284
0.000205128
0.000204984
0.000204851
0.000206439
0.000207068
0.000207
0.000206627
0.000206189
0.000205774
0.000205379
0.000204958
0.000204487
0.000204035
0.000207194
0.000208502
0.000208428
0.000207826
0.000207105
0.000206367
0.000205542
0.000204486
0.00020314
0.000201881
0.000207988
0.000210844
0.000211028
0.000210389
0.000209537
0.000208558
0.00020722
0.000205019
0.000201163
0.000194439
0.00020539
0.000205346
0.000205311
0.000205303
0.000205323
0.00020536
0.000205387
0.000205319
0.000204931
0.000203569
0.000205259
0.000205249
0.000205228
0.00020521
0.000205195
0.000205174
0.00020512
0.000204993
0.000204734
0.000204352
0.000205188
0.000205184
0.00020517
0.00020515
0.000205125
0.000205088
0.000205028
0.000204931
0.000204797
0.000204669
0.000205149
0.000205146
0.000205136
0.000205119
0.000205096
0.000205064
0.000205018
0.000204958
0.000204891
0.00020484
0.000205129
0.000205127
0.000205119
0.000205107
0.000205091
0.000205068
0.000205039
0.000205004
0.00020497
0.000204948
0.00020512
0.000205118
0.000205113
0.000205105
0.000205095
0.000205081
0.000205063
0.000205045
0.000205028
0.000205017
0.000205115
0.000205114
0.000205111
0.000205107
0.0002051
0.000205093
0.000205083
0.000205074
0.000205065
0.00020506
0.000205113
0.000205112
0.000205111
0.000205109
0.000205105
0.000205101
0.000205097
0.000205092
0.000205088
0.000205085
0.000205113
0.000205112
0.000205111
0.00020511
0.000205108
0.000205106
0.000205104
0.000205102
0.0002051
0.000205099
0.000205112
0.000205112
0.000205112
0.000205111
0.00020511
0.000205109
0.000205108
0.000205107
0.000205106
0.000205105
0.000205112
0.000205112
0.000205112
0.000205112
0.000205112
0.000205112
0.000205112
0.000205112
0.000205112
0.000205112
0.000205112
0.000205112
0.000205112
0.000205112
0.000205112
0.000205112
0.000205112
0.000205112
0.000205112
0.000205112
0.000205112
0.000205112
0.000205112
0.000205112
0.000205112
0.000205112
0.000205112
0.000205112
0.000205112
0.000205112
0.000205112
0.000205112
0.000205112
0.000205112
0.000205112
0.000205112
0.000205112
0.000205112
0.000205112
0.000205112
0.000205112
0.000205112
0.000205112
0.000205112
0.000205112
0.000205112
0.000205112
0.000205112
0.000205112
0.000205112
0.000205112
0.000205112
0.000205112
0.000205112
0.000205112
0.000205112
0.000205112
0.000205112
0.000205112
0.000205112
0.000205112
0.000205112
0.000205112
0.000205112
0.000205112
0.000205112
0.000205112
0.000205112
0.000205112
0.000205112
0.000205112
0.000205112
0.000205112
0.000205112
0.000205112
0.000205112
0.000205112
0.000205112
0.000205112
0.000205112
0.000205112
0.000205112
0.000205112
0.000205112
0.000205112
0.000205112
0.000205112
0.000205112
0.000205112
0.000205112
0.000205112
0.000205112
0.000205112
0.000205112
0.000205112
0.000205112
0.000205112
0.000205112
0.000205112
0.000205112
)
;

boundaryField
{
    defaultFaces
    {
        type            empty;
    }
}


// ************************************************************************* //
