/*--------------------------------*- C++ -*----------------------------------*\
  =========                 |
  \\      /  F ield         | OpenFOAM: The Open Source CFD Toolbox
   \\    /   O peration     | Website:  https://openfoam.org
    \\  /    A nd           | Version:  11
     \\/     M anipulation  |
\*---------------------------------------------------------------------------*/
FoamFile
{
    format      ascii;
    class       volScalarField;
    location    "7.5";
    object      nut;
}
// * * * * * * * * * * * * * * * * * * * * * * * * * * * * * * * * * * * * * //

dimensions      [0 2 -1 0 0 0 0];

internalField   nonuniform List<scalar> 
700
(
0.000136823
0.000136823
0.000136823
0.000136823
0.000136823
0.000136823
0.000136823
0.000136823
0.000136823
0.000136823
0.000136823
0.000136823
0.000136823
0.000136823
0.000136823
0.000136823
0.000136823
0.000136823
0.000136823
0.000136823
0.000136823
0.000136823
0.000136823
0.000136823
0.000136823
0.000136823
0.000136823
0.000136823
0.000136823
0.000136823
0.000136823
0.000136823
0.000136823
0.000136823
0.000136823
0.000136823
0.000136823
0.000136823
0.000136823
0.000136823
0.000136823
0.000136823
0.000136823
0.000136823
0.000136823
0.000136823
0.000136823
0.000136823
0.000136823
0.000136823
0.000136823
0.000136823
0.000136823
0.000136823
0.000136823
0.000136823
0.000136823
0.000136823
0.000136823
0.000136823
0.000136824
0.000136824
0.000136824
0.000136824
0.000136824
0.000136823
0.000136823
0.000136823
0.000136823
0.000136823
0.00013684
0.000136835
0.00013683
0.000136826
0.000136825
0.000136824
0.000136823
0.000136822
0.00013682
0.000136818
0.0001371
0.000137013
0.000136924
0.000136867
0.000136839
0.000136825
0.000136814
0.000136795
0.000136765
0.000136731
0.000140395
0.000138961
0.000137859
0.000137243
0.000136954
0.000136816
0.000136703
0.00013653
0.000136216
0.000135654
0.000153331
0.0001456
0.000140676
0.000138364
0.00013731
0.000136774
0.000136394
0.000136034
0.000135677
0.000135557
0.000149695
0.000146175
0.000141941
0.000139379
0.000137973
0.000137217
0.000136755
0.00013638
0.000135993
0.000135665
0.000144293
0.000144167
0.000141747
0.000139864
0.000138569
0.000137742
0.00013722
0.000136851
0.000136526
0.0001362
0.000137857
0.000140239
0.000139832
0.000139175
0.000138513
0.000137955
0.000137528
0.000137208
0.000136949
0.000136702
0.000131336
0.000135187
0.000136492
0.000137142
0.000137391
0.000137418
0.000137337
0.000137217
0.000137087
0.000136951
0.000125822
0.00013017
0.000132616
0.000134286
0.000135385
0.000136075
0.000136485
0.000136711
0.00013682
0.000136857
0.000122345
0.000126544
0.000129524
0.000131753
0.000133387
0.000134558
0.000135375
0.000135929
0.000136294
0.000136525
0.000121621
0.000125419
0.000128435
0.000130762
0.00013253
0.00013385
0.000134817
0.00013551
0.000135996
0.000136329
0.000123942
0.000127225
0.000129817
0.000131797
0.000133295
0.000134411
0.000135229
0.000135816
0.000136231
0.00013652
0.000129508
0.000131479
0.000132939
0.00013409
0.000134975
0.000135635
0.000136116
0.000136461
0.00013671
0.000136897
0.000134626
0.000134493
0.000134884
0.00013538
0.000135832
0.000136196
0.00013647
0.000136666
0.000136803
0.000136892
0.000135552
0.000135579
0.000135749
0.000135989
0.000136231
0.000136441
0.000136606
0.000136728
0.000136812
0.000136866
0.000136143
0.000136175
0.000136258
0.000136374
0.000136497
0.000136609
0.000136701
0.00013677
0.000136819
0.000136849
0.000136484
0.000136503
0.000136543
0.000136598
0.000136658
0.000136714
0.000136761
0.000136797
0.000136822
0.000136838
0.000136666
0.000136675
0.000136694
0.000136718
0.000136746
0.000136772
0.000136794
0.000136812
0.000136824
0.000136831
0.000136756
0.00013676
0.000136768
0.000136779
0.00013679
0.000136801
0.000136811
0.000136819
0.000136825
0.000136828
0.000136798
0.000136799
0.000136802
0.000136806
0.000136811
0.000136815
0.000136819
0.000136822
0.000136824
0.000136826
0.000136815
0.000136815
0.000136816
0.000136818
0.000136819
0.000136821
0.000136822
0.000136823
0.000136824
0.000136824
0.000136821
0.000136821
0.000136821
0.000136822
0.000136822
0.000136823
0.000136823
0.000136824
0.000136824
0.000136824
0.000136823
0.000136823
0.000136823
0.000136823
0.000136823
0.000136823
0.000136824
0.000136824
0.000136824
0.000136824
0.000136824
0.000136824
0.000136824
0.000136824
0.000136824
0.000136824
0.000136824
0.000136824
0.000136823
0.000136823
0.000136823
0.000136823
0.000136823
0.000136823
0.000136823
0.000136823
0.000136823
0.000136823
0.000136823
0.000136823
0.000136823
0.000136823
0.000136823
0.000136823
0.000136823
0.000136823
0.000136823
0.000136823
0.000136823
0.000136823
0.000136823
0.000136823
0.000136823
0.000136823
0.000136823
0.000136823
0.000136823
0.000136823
0.000136823
0.000136823
0.000136823
0.000136823
0.000136823
0.000136823
0.000136823
0.000136823
0.000136823
0.000136823
0.000136823
0.000136823
0.000136823
0.000136823
0.000136823
0.000136823
0.000136823
0.000136823
0.000136823
0.000136823
0.000136823
0.000136823
0.000136823
0.000136823
0.000136823
0.000136823
0.000136823
0.000136823
0.000136823
0.000136823
0.000136823
0.000136823
0.000136823
0.000136823
0.000136823
0.000136823
0.000136823
0.000136823
0.000136823
0.000136823
0.000136823
0.000136823
0.000136823
0.000136823
0.000136823
0.000136823
0.000136823
0.000136823
0.000136823
0.000136823
0.000136823
0.000136823
0.000136823
0.000136823
0.000136823
0.000136823
0.000136823
0.000136823
0.000136823
0.000136823
0.000136823
0.000136823
0.000136986
0.000137001
0.000137015
0.000137026
0.000137031
0.000137028
0.000137018
0.000137002
0.00013698
0.000136954
0.000136974
0.000136986
0.000136993
0.000136986
0.000136962
0.000136923
0.000136869
0.000136805
0.000136732
0.000136652
0.000136985
0.000136995
0.000136991
0.000136968
0.000136924
0.000136863
0.000136787
0.0001367
0.000136605
0.0001365
0.000137021
0.000137033
0.000137021
0.000136985
0.00013693
0.000136865
0.000136795
0.000136726
0.000136662
0.000136611
0.000137098
0.000137125
0.000137103
0.000137047
0.000136977
0.000136908
0.000136849
0.000136807
0.000136791
0.000136812
0.000137233
0.000137311
0.000137279
0.000137187
0.00013708
0.000136982
0.000136907
0.000136858
0.000136837
0.000136853
0.000137455
0.000137655
0.000137618
0.000137462
0.000137278
0.000137108
0.000136964
0.000136838
0.000136723
0.000136621
0.000137797
0.00013825
0.000138219
0.000137962
0.000137647
0.000137337
0.000137032
0.000136706
0.000136348
0.000136017
0.000138316
0.000139236
0.000139211
0.000138805
0.000138295
0.000137755
0.000137139
0.000136357
0.000135392
0.000134526
0.000138854
0.000140817
0.000140972
0.000140543
0.000139941
0.000139227
0.000138247
0.000136677
0.000134028
0.000129543
0.00013694
0.000136944
0.000136947
0.00013696
0.000136987
0.000137023
0.00013705
0.000137014
0.000136762
0.000135857
0.000136893
0.000136899
0.000136897
0.000136894
0.000136891
0.000136883
0.000136852
0.000136771
0.000136602
0.000136349
0.000136863
0.000136866
0.000136861
0.000136852
0.000136837
0.000136814
0.000136776
0.000136713
0.000136624
0.000136539
0.000136845
0.000136845
0.000136839
0.000136829
0.000136814
0.000136792
0.000136761
0.00013672
0.000136675
0.000136641
0.000136834
0.000136833
0.000136828
0.00013682
0.000136808
0.000136792
0.000136771
0.000136747
0.000136724
0.000136708
0.000136828
0.000136827
0.000136823
0.000136818
0.00013681
0.000136799
0.000136787
0.000136773
0.000136761
0.000136754
0.000136826
0.000136825
0.000136822
0.000136819
0.000136814
0.000136808
0.000136801
0.000136794
0.000136787
0.000136784
0.000136824
0.000136824
0.000136822
0.00013682
0.000136818
0.000136814
0.000136811
0.000136807
0.000136804
0.000136802
0.000136824
0.000136823
0.000136823
0.000136822
0.00013682
0.000136819
0.000136817
0.000136815
0.000136813
0.000136813
0.000136824
0.000136823
0.000136823
0.000136822
0.000136822
0.000136821
0.00013682
0.000136819
0.000136818
0.000136818
0.000136823
0.000136823
0.000136823
0.000136823
0.000136823
0.000136823
0.000136823
0.000136823
0.000136823
0.000136823
0.000136823
0.000136823
0.000136823
0.000136823
0.000136823
0.000136823
0.000136823
0.000136823
0.000136823
0.000136823
0.000136823
0.000136823
0.000136823
0.000136823
0.000136823
0.000136823
0.000136823
0.000136823
0.000136823
0.000136823
0.000136823
0.000136823
0.000136823
0.000136823
0.000136823
0.000136823
0.000136823
0.000136823
0.000136823
0.000136823
0.000136823
0.000136823
0.000136823
0.000136823
0.000136823
0.000136823
0.000136823
0.000136823
0.000136823
0.000136823
0.000136823
0.000136823
0.000136823
0.000136823
0.000136823
0.000136823
0.000136823
0.000136823
0.000136823
0.000136823
0.000136823
0.000136823
0.000136823
0.000136823
0.000136823
0.000136823
0.000136823
0.000136823
0.000136823
0.000136823
0.000136823
0.000136823
0.000136823
0.000136823
0.000136823
0.000136823
0.000136823
0.000136823
0.000136823
0.000136823
0.000136823
0.000136823
0.000136823
0.000136823
0.000136823
0.000136823
0.000136823
0.000136823
0.000136823
0.000136823
0.000136823
0.000136823
0.000136823
0.000136823
0.000136823
0.000136823
0.000136823
0.000136823
0.000136823
0.000136823
)
;

boundaryField
{
    defaultFaces
    {
        type            empty;
    }
}


// ************************************************************************* //
