/*--------------------------------*- C++ -*----------------------------------*\
  =========                 |
  \\      /  F ield         | OpenFOAM: The Open Source CFD Toolbox
   \\    /   O peration     | Website:  https://openfoam.org
    \\  /    A nd           | Version:  11
     \\/     M anipulation  |
\*---------------------------------------------------------------------------*/
FoamFile
{
    format      ascii;
    class       volScalarField;
    location    "1.5";
    object      epsilon;
}
// * * * * * * * * * * * * * * * * * * * * * * * * * * * * * * * * * * * * * //

dimensions      [0 2 -3 0 0 0 0];

internalField   nonuniform List<scalar> 
700
(
0.000479111
0.000479111
0.000479111
0.000479111
0.000479111
0.000479111
0.000479111
0.000479111
0.000479111
0.000479111
0.000479111
0.000479111
0.000479111
0.000479111
0.000479111
0.000479111
0.000479111
0.000479111
0.000479111
0.000479111
0.000479111
0.000479111
0.000479111
0.000479111
0.000479111
0.000479111
0.000479111
0.000479111
0.000479111
0.000479111
0.000479111
0.000479111
0.000479111
0.000479111
0.000479111
0.000479111
0.000479111
0.000479111
0.000479111
0.000479111
0.000479111
0.000479111
0.000479111
0.000479111
0.000479111
0.000479111
0.000479111
0.000479111
0.000479111
0.000479111
0.000479111
0.000479111
0.000479111
0.000479111
0.000479111
0.000479111
0.000479111
0.000479111
0.000479111
0.000479111
0.000479111
0.000479111
0.000479111
0.000479111
0.000479111
0.000479111
0.000479111
0.000479111
0.000479111
0.000479111
0.000479112
0.000479112
0.000479111
0.000479111
0.000479111
0.000479111
0.000479111
0.000479111
0.000479111
0.000479111
0.00047914
0.000479119
0.000479113
0.000479112
0.000479111
0.000479112
0.000479112
0.000479113
0.000479111
0.000479096
0.000480823
0.00047948
0.000479158
0.000479115
0.000479114
0.000479126
0.000479157
0.000479202
0.000479129
0.000478265
0.000500172
0.00048515
0.000479973
0.000479174
0.000479145
0.000479319
0.000479737
0.000480339
0.000480854
0.000481798
0.000492688
0.000486086
0.0004807
0.00047935
0.000479101
0.000479076
0.00047921
0.000479577
0.000480036
0.000480666
0.000487649
0.000486102
0.000481307
0.000479638
0.000479191
0.000479066
0.000479011
0.000479062
0.000479273
0.000479674
0.000481239
0.000484556
0.00048145
0.00047991
0.000479336
0.000479156
0.000479086
0.00047904
0.000479045
0.000479169
0.000472993
0.000480662
0.000480427
0.000479804
0.000479395
0.00047921
0.000479141
0.00047911
0.000479091
0.000479099
0.000464419
0.000475007
0.00047802
0.00047897
0.000479164
0.000479161
0.000479136
0.000479121
0.000479113
0.00047911
0.000458021
0.000469757
0.000475256
0.000477716
0.000478669
0.00047899
0.000479082
0.000479105
0.000479108
0.000479108
0.000455982
0.000467452
0.000473897
0.000477022
0.00047836
0.000478868
0.000479038
0.000479087
0.000479091
0.000479066
0.000459302
0.00046932
0.000474874
0.000477478
0.000478549
0.000478937
0.000479061
0.000479095
0.000479105
0.00047913
0.000469689
0.000475177
0.000477615
0.000478623
0.000478978
0.000479095
0.000479167
0.00047932
0.000479723
0.000480618
0.000480625
0.000479194
0.000479029
0.000479067
0.000479099
0.000479115
0.000479135
0.000479188
0.000479308
0.000479496
0.000479735
0.000479368
0.000479191
0.000479132
0.000479117
0.000479115
0.000479119
0.000479132
0.00047916
0.000479199
0.000479313
0.000479222
0.000479156
0.000479126
0.000479116
0.000479113
0.000479113
0.000479116
0.000479122
0.000479129
0.000479164
0.000479143
0.000479126
0.000479117
0.000479113
0.000479112
0.000479112
0.000479112
0.000479113
0.000479114
0.000479123
0.000479119
0.000479115
0.000479113
0.000479112
0.000479112
0.000479112
0.000479112
0.000479112
0.000479112
0.000479114
0.000479113
0.000479112
0.000479112
0.000479112
0.000479111
0.000479111
0.000479111
0.000479111
0.000479112
0.000479112
0.000479112
0.000479112
0.000479111
0.000479111
0.000479111
0.000479111
0.000479111
0.000479111
0.000479111
0.000479111
0.000479111
0.000479111
0.000479111
0.000479111
0.000479111
0.000479111
0.000479111
0.000479111
0.000479111
0.000479111
0.000479111
0.000479111
0.000479111
0.000479111
0.000479111
0.000479111
0.000479111
0.000479111
0.000479111
0.000479111
0.000479111
0.000479111
0.000479111
0.000479111
0.000479111
0.000479111
0.000479111
0.000479111
0.000479111
0.000479111
0.000479111
0.000479111
0.000479111
0.000479111
0.000479111
0.000479111
0.000479111
0.000479111
0.000479111
0.000479111
0.000479111
0.000479111
0.000479111
0.000479111
0.000479111
0.000479111
0.000479111
0.000479111
0.000479111
0.000479111
0.000479111
0.000479111
0.000479111
0.000479111
0.000479111
0.000479111
0.000479111
0.000479111
0.000479111
0.000479111
0.000479111
0.000479111
0.000479111
0.000479111
0.000479111
0.000479111
0.000479111
0.000479111
0.000479111
0.000479111
0.000479111
0.000479111
0.000479111
0.000479111
0.000479111
0.000479111
0.000479111
0.000479111
0.000479111
0.000479111
0.000479111
0.000479111
0.000479111
0.000479111
0.000479111
0.000479111
0.000479111
0.000479111
0.000479111
0.000479111
0.000479111
0.000479111
0.000479111
0.000479111
0.000479111
0.000479111
0.000479111
0.000479111
0.000479111
0.000479111
0.000479111
0.000479111
0.000479111
0.000479111
0.000479111
0.000479111
0.000479111
0.000479111
0.000479111
0.000479111
0.000479111
0.000479111
0.000479111
0.000479111
0.000479111
0.000479111
0.000479111
0.000479111
0.000479111
0.000479111
0.000479111
0.000479111
0.000479111
0.000479111
0.000479111
0.000479111
0.000479111
0.000479111
0.000479111
0.000480242
0.00048061
0.000481039
0.000481454
0.000481774
0.00048196
0.000481964
0.000481814
0.000481585
0.000481337
0.000479484
0.000479782
0.000480111
0.000480346
0.000480395
0.000480262
0.00048001
0.000479721
0.00047945
0.000479215
0.000479218
0.000479346
0.000479482
0.000479538
0.00047948
0.000479347
0.000479201
0.000479089
0.000479028
0.000479021
0.000479139
0.000479177
0.000479213
0.000479214
0.000479176
0.000479128
0.000479093
0.000479081
0.000479087
0.000479103
0.000479127
0.000479132
0.000479135
0.00047913
0.000479118
0.000479109
0.000479105
0.000479107
0.00047911
0.000479111
0.000479152
0.000479142
0.000479126
0.000479116
0.000479111
0.000479109
0.000479109
0.000479109
0.000479108
0.000479105
0.000479254
0.000479236
0.000479167
0.000479125
0.000479106
0.000479099
0.000479098
0.000479098
0.000479099
0.000479116
0.000479575
0.000479623
0.000479378
0.000479198
0.0004791
0.000479053
0.000479033
0.000479032
0.000479058
0.00047917
0.000480477
0.000480966
0.000480265
0.000479635
0.000479213
0.000478944
0.000478775
0.000478659
0.00047848
0.000477892
0.000481739
0.000484797
0.000484125
0.000483221
0.000482518
0.000481982
0.000481514
0.000480731
0.000477654
0.000464909
0.000479564
0.000479285
0.00047916
0.000479122
0.000479111
0.000479094
0.000479024
0.000478745
0.000477761
0.000474555
0.000479209
0.000479158
0.000479127
0.000479115
0.000479108
0.000479092
0.000479035
0.000478856
0.000478409
0.000477639
0.00047913
0.000479121
0.000479115
0.000479112
0.00047911
0.000479102
0.000479079
0.000479015
0.000478878
0.000478701
0.000479115
0.000479113
0.000479112
0.000479112
0.000479111
0.000479109
0.000479102
0.000479084
0.000479051
0.000479014
0.000479112
0.000479112
0.000479112
0.000479111
0.000479111
0.000479111
0.000479109
0.000479105
0.000479099
0.000479092
0.000479112
0.000479111
0.000479111
0.000479111
0.000479111
0.000479111
0.000479111
0.00047911
0.000479109
0.000479108
0.000479111
0.000479111
0.000479111
0.000479111
0.000479111
0.000479111
0.000479111
0.000479111
0.000479111
0.000479111
0.000479111
0.000479111
0.000479111
0.000479111
0.000479111
0.000479111
0.000479111
0.000479111
0.000479111
0.000479111
0.000479111
0.000479111
0.000479111
0.000479111
0.000479111
0.000479111
0.000479111
0.000479111
0.000479111
0.000479111
0.000479111
0.000479111
0.000479111
0.000479111
0.000479111
0.000479111
0.000479111
0.000479111
0.000479111
0.000479111
0.000479111
0.000479111
0.000479111
0.000479111
0.000479111
0.000479111
0.000479111
0.000479111
0.000479111
0.000479111
0.000479111
0.000479111
0.000479111
0.000479111
0.000479111
0.000479111
0.000479111
0.000479111
0.000479111
0.000479111
0.000479111
0.000479111
0.000479111
0.000479111
0.000479111
0.000479111
0.000479111
0.000479111
0.000479111
0.000479111
0.000479111
0.000479111
0.000479111
0.000479111
0.000479111
0.000479111
0.000479111
0.000479111
0.000479111
0.000479111
0.000479111
0.000479111
0.000479111
0.000479111
0.000479111
0.000479111
0.000479111
0.000479111
0.000479111
0.000479111
0.000479111
0.000479111
0.000479111
0.000479111
0.000479111
0.000479111
0.000479111
0.000479111
0.000479111
0.000479111
0.000479111
0.000479111
0.000479111
0.000479111
0.000479111
0.000479111
0.000479111
0.000479111
0.000479111
0.000479111
0.000479111
0.000479111
0.000479111
0.000479111
0.000479111
0.000479111
0.000479111
0.000479111
0.000479111
0.000479111
0.000479111
0.000479111
0.000479111
0.000479111
0.000479111
0.000479111
0.000479111
0.000479111
0.000479111
0.000479111
0.000479111
0.000479111
0.000479111
0.000479111
0.000479111
0.000479111
0.000479111
0.000479111
0.000479111
0.000479111
)
;

boundaryField
{
    defaultFaces
    {
        type            empty;
    }
}


// ************************************************************************* //
