/*--------------------------------*- C++ -*----------------------------------*\
  =========                 |
  \\      /  F ield         | OpenFOAM: The Open Source CFD Toolbox
   \\    /   O peration     | Website:  https://openfoam.org
    \\  /    A nd           | Version:  11
     \\/     M anipulation  |
\*---------------------------------------------------------------------------*/
FoamFile
{
    format      ascii;
    class       volScalarField;
    location    "1.5";
    object      k;
}
// * * * * * * * * * * * * * * * * * * * * * * * * * * * * * * * * * * * * * //

dimensions      [0 2 -2 0 0 0 0];

internalField   nonuniform List<scalar> 
700
(
0.00090286
0.00090286
0.00090286
0.00090286
0.00090286
0.00090286
0.00090286
0.00090286
0.00090286
0.00090286
0.00090286
0.00090286
0.00090286
0.00090286
0.00090286
0.00090286
0.00090286
0.00090286
0.00090286
0.00090286
0.00090286
0.00090286
0.00090286
0.00090286
0.00090286
0.00090286
0.00090286
0.00090286
0.00090286
0.00090286
0.00090286
0.00090286
0.00090286
0.00090286
0.00090286
0.00090286
0.00090286
0.00090286
0.00090286
0.00090286
0.00090286
0.00090286
0.00090286
0.00090286
0.00090286
0.00090286
0.00090286
0.00090286
0.00090286
0.00090286
0.00090286
0.00090286
0.00090286
0.00090286
0.00090286
0.00090286
0.00090286
0.00090286
0.00090286
0.00090286
0.00090286
0.00090286
0.00090286
0.00090286
0.00090286
0.00090286
0.00090286
0.00090286
0.00090286
0.00090286
0.000902861
0.000902861
0.000902861
0.00090286
0.00090286
0.00090286
0.00090286
0.000902861
0.00090286
0.00090286
0.00090293
0.00090288
0.000902864
0.000902861
0.000902861
0.000902861
0.000902862
0.000902864
0.000902858
0.000902824
0.000906616
0.00090375
0.000902986
0.000902871
0.000902868
0.000902895
0.000902962
0.000903042
0.000902845
0.000901057
0.000946614
0.000916105
0.000904953
0.000903044
0.00090294
0.000903285
0.000904018
0.000904928
0.000905567
0.000907027
0.000931594
0.00091799
0.000906613
0.000903493
0.000902866
0.000902828
0.000903133
0.000903788
0.000904452
0.000905321
0.00092084
0.000917656
0.000907883
0.000904181
0.000903088
0.000902778
0.000902697
0.000902857
0.00090326
0.000903885
0.000907373
0.000913974
0.000907993
0.000904766
0.000903445
0.000902985
0.000902806
0.000902725
0.000902767
0.000903001
0.000890317
0.000905467
0.000905477
0.000904392
0.000903552
0.000903122
0.00090294
0.000902858
0.000902818
0.000902839
0.000872782
0.000893512
0.00090002
0.000902329
0.000902916
0.000902969
0.000902924
0.000902887
0.000902865
0.000902857
0.000859805
0.000882615
0.00089395
0.000899384
0.000901666
0.000902501
0.000902767
0.000902839
0.000902854
0.000902855
0.000855712
0.000877918
0.000891026
0.000897795
0.000900907
0.00090218
0.000902644
0.000902793
0.000902825
0.000902801
0.000862531
0.000881919
0.000893225
0.000898883
0.000901388
0.000902371
0.000902713
0.000902818
0.00090285
0.000902887
0.000883567
0.000894252
0.000899336
0.000901611
0.000902483
0.000902782
0.00090292
0.000903131
0.000903669
0.000904878
0.000905284
0.000902705
0.000902533
0.000902702
0.00090281
0.000902857
0.000902891
0.00090296
0.000903117
0.000903367
0.000904008
0.000903324
0.000902999
0.000902896
0.000902869
0.000902866
0.000902871
0.000902889
0.000902925
0.000902976
0.000903282
0.000903099
0.000902961
0.000902896
0.000902871
0.000902864
0.000902864
0.000902867
0.000902875
0.000902884
0.000902983
0.000902939
0.000902897
0.000902874
0.000902865
0.000902862
0.000902861
0.000902862
0.000902863
0.000902865
0.00090289
0.00090288
0.00090287
0.000902864
0.000902862
0.000902861
0.000902861
0.000902861
0.000902861
0.000902861
0.000902866
0.000902865
0.000902863
0.000902861
0.000902861
0.000902861
0.000902861
0.000902861
0.000902861
0.000902861
0.000902862
0.000902861
0.000902861
0.000902861
0.000902861
0.00090286
0.00090286
0.00090286
0.00090286
0.00090286
0.000902861
0.000902861
0.000902861
0.000902861
0.00090286
0.00090286
0.00090286
0.00090286
0.00090286
0.00090286
0.00090286
0.00090286
0.00090286
0.00090286
0.00090286
0.00090286
0.00090286
0.00090286
0.00090286
0.00090286
0.00090286
0.00090286
0.00090286
0.00090286
0.00090286
0.00090286
0.00090286
0.00090286
0.00090286
0.00090286
0.00090286
0.00090286
0.00090286
0.00090286
0.00090286
0.00090286
0.00090286
0.00090286
0.00090286
0.00090286
0.00090286
0.00090286
0.00090286
0.00090286
0.00090286
0.00090286
0.00090286
0.00090286
0.00090286
0.00090286
0.00090286
0.00090286
0.00090286
0.00090286
0.00090286
0.00090286
0.00090286
0.00090286
0.00090286
0.00090286
0.00090286
0.00090286
0.00090286
0.00090286
0.00090286
0.00090286
0.00090286
0.00090286
0.00090286
0.00090286
0.00090286
0.00090286
0.00090286
0.00090286
0.00090286
0.00090286
0.00090286
0.00090286
0.00090286
0.00090286
0.00090286
0.00090286
0.00090286
0.00090286
0.00090286
0.00090286
0.00090286
0.00090286
0.00090286
0.00090286
0.00090286
0.00090286
0.00090286
0.00090286
0.00090286
0.00090286
0.00090286
0.00090286
0.00090286
0.00090286
0.00090286
0.00090286
0.00090286
0.00090286
0.00090286
0.00090286
0.00090286
0.00090286
0.00090286
0.00090286
0.00090286
0.00090286
0.00090286
0.00090286
0.00090286
0.00090286
0.00090286
0.00090286
0.00090286
0.00090286
0.00090286
0.00090286
0.00090286
0.00090286
0.00090286
0.00090286
0.00090286
0.00090286
0.00090286
0.00090286
0.000904364
0.000904857
0.00090543
0.000905984
0.000906407
0.000906653
0.000906668
0.000906484
0.000906187
0.000905853
0.000903348
0.000903742
0.000904179
0.000904491
0.000904559
0.000904389
0.000904062
0.000903681
0.000903319
0.000903004
0.000902999
0.000903165
0.000903341
0.000903416
0.000903343
0.000903172
0.000902983
0.000902835
0.000902754
0.000902744
0.000902901
0.000902948
0.000902993
0.000902993
0.000902946
0.000902885
0.00090284
0.000902823
0.00090283
0.000902849
0.000902896
0.000902898
0.000902896
0.000902886
0.00090287
0.000902858
0.000902853
0.000902854
0.000902858
0.000902859
0.000902963
0.000902942
0.0009029
0.000902873
0.00090286
0.000902855
0.000902854
0.000902854
0.000902852
0.000902847
0.000903198
0.000903181
0.000903017
0.000902908
0.000902855
0.000902834
0.000902828
0.000902828
0.000902834
0.000902878
0.00090389
0.000904075
0.000903542
0.000903118
0.000902876
0.000902754
0.0009027
0.000902691
0.000902741
0.000902939
0.000905716
0.00090694
0.000905544
0.000904199
0.000903271
0.000902668
0.000902277
0.000901983
0.000901477
0.000900027
0.000908204
0.000914529
0.000913283
0.000911439
0.000909984
0.000908868
0.000907865
0.000906082
0.000899374
0.000874181
0.000903456
0.000903087
0.000902925
0.000902876
0.000902858
0.00090282
0.000902666
0.000902094
0.000900169
0.000894077
0.000902989
0.000902922
0.000902882
0.000902864
0.00090285
0.000902809
0.000902672
0.000902275
0.000901341
0.000899816
0.000902885
0.000902874
0.000902866
0.000902861
0.000902854
0.000902835
0.000902774
0.000902618
0.000902311
0.000901935
0.000902865
0.000902863
0.000902862
0.00090286
0.000902858
0.000902852
0.000902833
0.000902787
0.000902706
0.00090262
0.000902861
0.000902861
0.000902861
0.00090286
0.00090286
0.000902858
0.000902853
0.000902843
0.000902824
0.000902807
0.000902861
0.000902861
0.000902861
0.00090286
0.00090286
0.00090286
0.000902859
0.000902857
0.000902853
0.00090285
0.00090286
0.00090286
0.00090286
0.00090286
0.00090286
0.00090286
0.00090286
0.00090286
0.000902859
0.000902859
0.00090286
0.00090286
0.00090286
0.00090286
0.00090286
0.00090286
0.00090286
0.00090286
0.00090286
0.00090286
0.00090286
0.00090286
0.00090286
0.00090286
0.00090286
0.00090286
0.00090286
0.00090286
0.00090286
0.00090286
0.00090286
0.00090286
0.00090286
0.00090286
0.00090286
0.00090286
0.00090286
0.00090286
0.00090286
0.00090286
0.00090286
0.00090286
0.00090286
0.00090286
0.00090286
0.00090286
0.00090286
0.00090286
0.00090286
0.00090286
0.00090286
0.00090286
0.00090286
0.00090286
0.00090286
0.00090286
0.00090286
0.00090286
0.00090286
0.00090286
0.00090286
0.00090286
0.00090286
0.00090286
0.00090286
0.00090286
0.00090286
0.00090286
0.00090286
0.00090286
0.00090286
0.00090286
0.00090286
0.00090286
0.00090286
0.00090286
0.00090286
0.00090286
0.00090286
0.00090286
0.00090286
0.00090286
0.00090286
0.00090286
0.00090286
0.00090286
0.00090286
0.00090286
0.00090286
0.00090286
0.00090286
0.00090286
0.00090286
0.00090286
0.00090286
0.00090286
0.00090286
0.00090286
0.00090286
0.00090286
0.00090286
0.00090286
0.00090286
0.00090286
0.00090286
0.00090286
0.00090286
0.00090286
0.00090286
0.00090286
0.00090286
0.00090286
0.00090286
0.00090286
0.00090286
0.00090286
0.00090286
0.00090286
0.00090286
0.00090286
0.00090286
0.00090286
0.00090286
0.00090286
0.00090286
0.00090286
0.00090286
0.00090286
0.00090286
0.00090286
0.00090286
0.00090286
0.00090286
0.00090286
0.00090286
0.00090286
0.00090286
0.00090286
0.00090286
0.00090286
)
;

boundaryField
{
    defaultFaces
    {
        type            empty;
    }
}


// ************************************************************************* //
