/*--------------------------------*- C++ -*----------------------------------*\
  =========                 |
  \\      /  F ield         | OpenFOAM: The Open Source CFD Toolbox
   \\    /   O peration     | Website:  https://openfoam.org
    \\  /    A nd           | Version:  11
     \\/     M anipulation  |
\*---------------------------------------------------------------------------*/
FoamFile
{
    format      ascii;
    class       volScalarField;
    location    "1.5";
    object      nut;
}
// * * * * * * * * * * * * * * * * * * * * * * * * * * * * * * * * * * * * * //

dimensions      [0 2 -1 0 0 0 0];

internalField   nonuniform List<scalar> 
700
(
0.000153125
0.000153125
0.000153125
0.000153125
0.000153125
0.000153125
0.000153125
0.000153125
0.000153125
0.000153125
0.000153125
0.000153125
0.000153125
0.000153125
0.000153125
0.000153125
0.000153125
0.000153125
0.000153125
0.000153125
0.000153125
0.000153125
0.000153125
0.000153125
0.000153125
0.000153125
0.000153125
0.000153125
0.000153125
0.000153125
0.000153125
0.000153125
0.000153125
0.000153125
0.000153125
0.000153125
0.000153125
0.000153125
0.000153125
0.000153125
0.000153125
0.000153125
0.000153125
0.000153125
0.000153125
0.000153125
0.000153125
0.000153125
0.000153125
0.000153125
0.000153125
0.000153125
0.000153125
0.000153125
0.000153125
0.000153125
0.000153125
0.000153125
0.000153125
0.000153125
0.000153125
0.000153125
0.000153125
0.000153125
0.000153125
0.000153125
0.000153125
0.000153125
0.000153125
0.000153125
0.000153126
0.000153125
0.000153125
0.000153125
0.000153125
0.000153125
0.000153125
0.000153125
0.000153125
0.000153125
0.00015314
0.00015313
0.000153126
0.000153125
0.000153125
0.000153126
0.000153126
0.000153126
0.000153125
0.000153118
0.000153852
0.000153309
0.000153153
0.000153128
0.000153127
0.000153133
0.000153145
0.000153158
0.000153114
0.000152784
0.000161239
0.000155689
0.00015356
0.000153168
0.000153142
0.000153203
0.000153318
0.000153434
0.000153487
0.00015368
0.000158535
0.000156029
0.000153891
0.000153264
0.000153131
0.000153126
0.000153187
0.000153291
0.00015337
0.000153463
0.000156496
0.000155911
0.000154127
0.000153405
0.000153177
0.000153112
0.000153102
0.00015314
0.000153209
0.000153293
0.000153976
0.000155155
0.000154119
0.000153517
0.000153252
0.000153153
0.000153115
0.000153102
0.000153115
0.000153154
0.000150826
0.000153514
0.000153592
0.000153424
0.000153269
0.000153183
0.000153143
0.000153125
0.000153118
0.000153122
0.00014762
0.000151266
0.000152511
0.000152991
0.000153128
0.000153146
0.000153139
0.000153131
0.000153127
0.000153125
0.000145264
0.000149249
0.000151336
0.000152392
0.000152861
0.000153042
0.000153103
0.00015312
0.000153124
0.000153125
0.000144527
0.000148393
0.000150778
0.000152075
0.000152703
0.000152972
0.000153075
0.00015311
0.00015312
0.00015312
0.000145779
0.000149153
0.000151212
0.000152299
0.000152806
0.000153015
0.000153091
0.000153116
0.000153124
0.000153129
0.000149593
0.000151463
0.000152408
0.000152858
0.00015304
0.000153104
0.000153128
0.00015315
0.000153204
0.000153328
0.000153464
0.000153046
0.000153041
0.000153086
0.000153112
0.000153123
0.000153128
0.000153135
0.00015315
0.000153174
0.000153315
0.000153201
0.000153147
0.000153131
0.000153127
0.000153126
0.000153127
0.000153128
0.000153132
0.000153137
0.000153204
0.000153171
0.000153145
0.000153133
0.000153128
0.000153126
0.000153126
0.000153126
0.000153127
0.000153128
0.00015315
0.000153142
0.000153133
0.000153129
0.000153126
0.000153126
0.000153126
0.000153126
0.000153126
0.000153126
0.000153132
0.00015313
0.000153128
0.000153126
0.000153126
0.000153126
0.000153125
0.000153125
0.000153125
0.000153126
0.000153127
0.000153126
0.000153126
0.000153126
0.000153125
0.000153125
0.000153125
0.000153125
0.000153125
0.000153125
0.000153126
0.000153126
0.000153126
0.000153125
0.000153125
0.000153125
0.000153125
0.000153125
0.000153125
0.000153125
0.000153125
0.000153125
0.000153125
0.000153125
0.000153125
0.000153125
0.000153125
0.000153125
0.000153125
0.000153125
0.000153125
0.000153125
0.000153125
0.000153125
0.000153125
0.000153125
0.000153125
0.000153125
0.000153125
0.000153125
0.000153125
0.000153125
0.000153125
0.000153125
0.000153125
0.000153125
0.000153125
0.000153125
0.000153125
0.000153125
0.000153125
0.000153125
0.000153125
0.000153125
0.000153125
0.000153125
0.000153125
0.000153125
0.000153125
0.000153125
0.000153125
0.000153125
0.000153125
0.000153125
0.000153125
0.000153125
0.000153125
0.000153125
0.000153125
0.000153125
0.000153125
0.000153125
0.000153125
0.000153125
0.000153125
0.000153125
0.000153125
0.000153125
0.000153125
0.000153125
0.000153125
0.000153125
0.000153125
0.000153125
0.000153125
0.000153125
0.000153125
0.000153125
0.000153125
0.000153125
0.000153125
0.000153125
0.000153125
0.000153125
0.000153125
0.000153125
0.000153125
0.000153125
0.000153125
0.000153125
0.000153125
0.000153125
0.000153125
0.000153125
0.000153125
0.000153125
0.000153125
0.000153125
0.000153125
0.000153125
0.000153125
0.000153125
0.000153125
0.000153125
0.000153125
0.000153125
0.000153125
0.000153125
0.000153125
0.000153125
0.000153125
0.000153125
0.000153125
0.000153125
0.000153125
0.000153125
0.000153125
0.000153125
0.000153125
0.000153125
0.000153125
0.000153125
0.000153125
0.000153125
0.000153125
0.000153125
0.000153125
0.000153125
0.000153125
0.000153125
0.000153125
0.000153125
0.000153125
0.000153125
0.000153125
0.000153125
0.000153125
0.000153125
0.000153125
0.000153125
0.000153274
0.000153324
0.000153381
0.000153436
0.000153478
0.000153502
0.000153506
0.000153491
0.000153464
0.000153429
0.000153172
0.00015321
0.000153253
0.000153284
0.000153292
0.000153276
0.000153246
0.000153209
0.000153173
0.000153141
0.000153139
0.000153154
0.00015317
0.000153177
0.000153171
0.000153156
0.000153138
0.000153124
0.000153116
0.000153115
0.00015313
0.000153134
0.000153138
0.000153138
0.000153134
0.000153128
0.000153124
0.000153122
0.000153123
0.000153124
0.000153133
0.000153132
0.00015313
0.000153128
0.000153127
0.000153125
0.000153125
0.000153125
0.000153125
0.000153125
0.000153147
0.000153143
0.000153134
0.000153128
0.000153125
0.000153124
0.000153124
0.000153124
0.000153124
0.000153123
0.000153194
0.000153194
0.00015316
0.000153137
0.000153125
0.00015312
0.000153119
0.000153119
0.00015312
0.00015313
0.000153326
0.000153374
0.000153271
0.000153185
0.000153135
0.000153108
0.000153096
0.000153093
0.000153102
0.000153133
0.000153658
0.000153916
0.000153667
0.000153412
0.000153232
0.000153114
0.000153035
0.000152972
0.000152858
0.000152554
0.000154098
0.000155266
0.000155058
0.000154722
0.000154453
0.000154246
0.000154055
0.000153701
0.000152409
0.000147937
0.000153183
0.000153147
0.000153132
0.000153127
0.000153125
0.000153117
0.000153088
0.000152983
0.000152644
0.000151602
0.000153138
0.000153131
0.000153128
0.000153126
0.000153123
0.000153114
0.000153086
0.000153008
0.000152835
0.000152563
0.000153128
0.000153127
0.000153126
0.000153125
0.000153124
0.00015312
0.000153106
0.000153074
0.000153013
0.000152943
0.000153126
0.000153126
0.000153126
0.000153125
0.000153125
0.000153123
0.000153119
0.000153109
0.000153092
0.000153075
0.000153126
0.000153125
0.000153125
0.000153125
0.000153125
0.000153125
0.000153124
0.000153121
0.000153117
0.000153114
0.000153125
0.000153125
0.000153125
0.000153125
0.000153125
0.000153125
0.000153125
0.000153125
0.000153124
0.000153123
0.000153125
0.000153125
0.000153125
0.000153125
0.000153125
0.000153125
0.000153125
0.000153125
0.000153125
0.000153125
0.000153125
0.000153125
0.000153125
0.000153125
0.000153125
0.000153125
0.000153125
0.000153125
0.000153125
0.000153125
0.000153125
0.000153125
0.000153125
0.000153125
0.000153125
0.000153125
0.000153125
0.000153125
0.000153125
0.000153125
0.000153125
0.000153125
0.000153125
0.000153125
0.000153125
0.000153125
0.000153125
0.000153125
0.000153125
0.000153125
0.000153125
0.000153125
0.000153125
0.000153125
0.000153125
0.000153125
0.000153125
0.000153125
0.000153125
0.000153125
0.000153125
0.000153125
0.000153125
0.000153125
0.000153125
0.000153125
0.000153125
0.000153125
0.000153125
0.000153125
0.000153125
0.000153125
0.000153125
0.000153125
0.000153125
0.000153125
0.000153125
0.000153125
0.000153125
0.000153125
0.000153125
0.000153125
0.000153125
0.000153125
0.000153125
0.000153125
0.000153125
0.000153125
0.000153125
0.000153125
0.000153125
0.000153125
0.000153125
0.000153125
0.000153125
0.000153125
0.000153125
0.000153125
0.000153125
0.000153125
0.000153125
0.000153125
0.000153125
0.000153125
0.000153125
0.000153125
0.000153125
0.000153125
0.000153125
0.000153125
0.000153125
0.000153125
0.000153125
0.000153125
0.000153125
0.000153125
0.000153125
0.000153125
0.000153125
0.000153125
0.000153125
0.000153125
0.000153125
0.000153125
0.000153125
0.000153125
0.000153125
0.000153125
0.000153125
0.000153125
0.000153125
0.000153125
0.000153125
0.000153125
0.000153125
0.000153125
0.000153125
0.000153125
0.000153125
0.000153125
0.000153125
0.000153125
0.000153125
0.000153125
0.000153125
0.000153125
0.000153125
0.000153125
0.000153125
0.000153125
)
;

boundaryField
{
    defaultFaces
    {
        type            empty;
    }
}


// ************************************************************************* //
