/*--------------------------------*- C++ -*----------------------------------*\
  =========                 |
  \\      /  F ield         | OpenFOAM: The Open Source CFD Toolbox
   \\    /   O peration     | Website:  https://openfoam.org
    \\  /    A nd           | Version:  11
     \\/     M anipulation  |
\*---------------------------------------------------------------------------*/
FoamFile
{
    format      ascii;
    class       volScalarField;
    location    "1";
    object      gradTz;
}
// * * * * * * * * * * * * * * * * * * * * * * * * * * * * * * * * * * * * * //

dimensions      [0 -1 0 1 0 0 0];

internalField   nonuniform List<scalar> 
5712
(
8434.09
27624
6738.51
28295.1
5001.18
29074
7770.56
44197.2
9527.11
60597.4
9532.14
44507.5
9268.83
37149.9
9642.31
33312.9
5824.76
3708.17
15625.3
9384.3
5631.83
3058.49
16803.3
8336.34
6519.43
4888.91
20827.6
15066.6
4936.26
3717.77
20463
15256.9
11621.9
4971.16
10131.1
4590.5
4794.43
11024
38917.9
10410.9
13975.2
4497.69
49484.4
13224.1
12814.2
4133.73
28188.4
8659.36
14484.9
4911.58
24860.2
7836.75
8258.49
4095.39
11061.7
4399.71
8962.39
4819.97
10735
4220.14
11050.8
6361.98
9247.3
4126
13181.7
4821.89
4474.56
1587.12
15067.5
10698.4
9068.91
6726.32
15860.9
13093.9
8525.75
7337.3
8972.13
6287.77
13191.9
9196.11
5781.64
4271.42
2686.99
2205.81
5307.93
4552.99
2458.3
2403.26
5787.71
3894.72
2759.78
1775.17
8289.92
4596.72
6442.51
7600.51
11757.6
8431.21
9668.65
13270.8
5301.73
2573.84
3680.55
4259.8
2481.69
1065.98
1472.13
1527.11
11556.4
20542.3
7713.95
22786.4
13318
19985.5
9382.17
23620.5
14826.9
17882.8
11850.7
22671
15427.2
17062.6
12786.8
12648.7
13574.2
17162.4
17252
18201.6
19357
27371.9
13995.5
11846
11035
12544.9
18938.9
24044
21710.4
27717.7
27028.3
22015.2
20594.4
27212.2
26327.3
18967.3
18711.1
25300.9
25189
12743
10287.5
13175.6
11923.3
15051.8
14165.5
16792.7
16718.2
22859.2
24044.9
11793.9
10680.6
12291.6
12731.2
13397.4
15193.6
15425.6
18271.1
19978.7
24146.4
10040.9
7925.64
6673.29
8261.49
12616.9
14867.3
8535.19
13184.5
6020.32
7630.82
9247.78
7721.17
1702.7
5352.34
650.911
1766.62
4222.93
8646.47
1334.58
2814.66
1063.93
4781.98
370.254
1553.2
6121.72
6146.52
7033.19
4584.94
9904.97
8116.96
11687.1
8400.08
1665.78
3325.54
3491.31
2116
1748.98
2237.11
2476.84
1874
17580
10809.7
3472.9
19762.2
11510.8
3797.16
16890.6
10696.7
3672.87
19352.6
11501.1
3794.79
15502.5
9844.69
3270.71
18740.5
11482.1
3855.95
7228.9
4279.65
1282.75
9966.13
6675.63
2294.86
12408.2
8542.11
2947.99
14694.7
9653.99
3231.21
18443.6
11697.4
4073.54
8268.28
5026.74
1723.93
9828.92
7171.09
2738.19
12118.4
8939.8
3329.93
15015.3
10607.4
3842.19
18714.1
11937.7
4285.54
266.986
2047.93
2836.37
4154.07
2404.57
2706.32
5963.39
5611.05
590.82
953.3
630.073
991.194
438.806
1317.8
810.701
1733.56
3014.57
1495.74
3921.25
2306.81
2018.76
3457.91
3328.79
421.216
6524.04
1199.09
-2532.36
-30.1846
1416.43
735.738
735.07
371.254
9062.54
3785.97
2443.1
1396.72
9215.71
3909.17
3087.87
1758.93
9124.94
4169.48
4363.45
2778.59
2974.43
1943.73
997.876
977.305
13038.9
11419.9
5987.05
6132.28
14791.8
13730.5
7172.8
7135.71
4983.55
5058.32
10636.4
8668.26
3350.25
3534.72
1558.94
1937.09
4219.19
4177.45
2010.49
2246.28
2675.99
2961.65
1185.53
1725.7
4154.11
2568.91
4046.62
2498.78
6705.14
3449.44
6183.17
3533.54
2270.91
1747.51
2445.51
1529.97
969.065
915.987
1424.95
805.719
10411.8
6498.17
4754.4
4368.33
10419.5
6795.56
4760.35
4357.51
11006.2
7378.58
4830.3
4301.05
14328.5
16349.1
12358.1
7724.78
3809.19
15495
13429
11674.3
8947.15
4938.04
14437.8
12301.9
9248.25
6583.92
3531
4831.93
3806.7
4125.68
4183.32
5213.87
3938.05
4265.93
4241.19
5848.45
4317.39
4474.84
4378.53
11665.8
8363.55
10074
6935.75
7320.01
5672.89
6232.05
4968.81
4271.1
4499.97
9733.42
8512.46
8015.91
6886.59
6307.67
5509.06
4985.63
4631.67
3303.28
4259.03
7131.11
4873.16
4650.68
2917.22
9898.3
7644.68
6734.06
5533.49
3510.16
2138.97
5181.72
3746.6
4489.93
2159.24
1429.84
791.915
5035.52
3701.4
1528.33
1283.75
3639.03
1599.11
1251.99
617.433
2563.32
2209.44
1876.33
2592.68
3646.26
3195.38
2404.4
3281.41
2619.29
1556.09
1373.17
1774.89
639.318
268.379
-65.2613
206.101
2497.77
1053.44
310.594
2668.06
726.414
195.639
2666.04
1194.3
367.029
2744.1
783.494
221.222
2773.71
1321.34
358.174
2835.3
845.041
209.368
5411.26
2971.79
792.202
4281.61
2202.1
594.059
3633.33
1812.4
521.273
3120.66
1489.13
361.177
2944.47
873.968
159.115
6498.63
3493.61
1052
5188.66
2660.17
781.812
4184.59
2104.07
629.651
3453.17
1543.37
411.504
3213.33
843.357
215.879
1343.71
447.72
110.288
-39.0922
559.221
193.244
56.2786
-1.85025
1407.46
479.735
135.39
-12.0076
692.646
253.214
113.641
47.8586
1485.1
517.77
183.969
36.3604
1120.55
444.07
134.726
21.8381
763.586
354.437
63.6232
-32.0946
595.381
328.016
136.446
59.4417
1153.28
445.306
110.057
-62.3013
948.423
358.603
137.851
-47.8909
1414.57
496.949
159.947
-15.5221
1237.08
431.676
163.947
-75.0665
852.309
368.342
109.401
-24.9995
676.515
283.996
126.725
3.23035
537.841
273.481
123.571
58.0086
403.614
203.656
110.778
50.601
1672.68
542.439
129.944
-89.0675
1581.44
494.35
176.875
-115.668
1663.25
543.591
135.661
-86.038
1533.95
478.869
177.64
-113.904
1620.38
535.231
175.037
-44.8552
1439.26
449.602
197.762
-82.6959
1405.53
480.578
207.058
38.5064
1573.28
494.057
257.295
-91.8838
1220.2
415.005
193.609
-8.85597
1186.86
341.483
146.79
-65.4798
457.462
122.723
40.5041
-6.66056
1244.12
363.933
154.979
-61.2799
484.589
132.691
47.1956
-1.20453
1294.51
387.935
175.534
-48.7604
507.336
143.79
54.5378
4.63469
1180.15
361.778
190.346
-31.298
503.129
147.289
68.576
14.7292
1081.34
349.517
189.118
-6.66947
459.069
150.861
84.5385
26.8081
701.883
245.918
103.194
-4.23903
404.93
167.392
81.2502
35.3107
846.154
273.387
130.815
-9.30912
430.698
160.469
84.8402
32.3522
526.125
210.03
90.8975
10.3977
328.412
153.835
73.3907
37.3016
321.937
160.951
86.9181
41.1855
232.766
130.159
70.6671
42.6397
-2.33195
1.51499
1.10823
0.575171
0.334055
0.301684
1.00781
0.61807
0.310674
0.178914
4.30512
4.21952
2.26975
1.10028
0.627347
7.57983
4.09264
1.97087
0.927123
0.524075
10.5355
7.2149
3.63058
1.73064
0.982935
25.3695
13.2264
6.20927
2.90169
1.64003
27.3821
14.6923
7.00006
3.30592
1.88185
39.0044
18.8909
8.76068
4.12
2.35064
14.5019
10.0138
4.99975
2.38713
1.36187
15.7236
9.44685
4.59175
2.18085
1.24309
11.2654
8.2395
4.11015
1.95281
1.10892
20.4855
10.4116
4.77154
2.21362
1.24735
17.6803
11.4382
5.70162
2.73484
1.56656
20.6154
10.9821
5.24149
2.48487
1.41934
30.755
15.0796
7.0251
3.31194
1.89247
25.7811
12.421
5.77677
2.72593
1.55928
-6.22929
0.762904
0.815159
0.440691
0.258135
-3.66209
0.219652
0.308278
0.168462
0.0986524
-1.86659
2.50578
1.54303
0.764758
0.437699
-2.06593
0.859328
0.571703
0.284591
0.16258
3.1731
4.34361
2.2969
1.10188
0.625326
4.18319
2.99683
1.42707
0.659995
0.369413
14.9816
8.48934
3.95592
1.82727
1.02276
10.5262
5.57271
2.51789
1.1503
0.640841
26.5694
11.4839
5.01196
2.27164
1.26566
2521.69
5729.88
2630.34
5719.49
2967.27
5723.39
3495.85
5921.06
3563.27
6000.18
1513.97
2155.89
2394.4
3600.36
826.165
1082.92
264.275
339.347
12834
3098.37
719.404
163.214
41.4033
3530.05
958.439
257.326
59.3494
13.2065
12586.8
3017.9
700.77
157.815
40.3586
3600.61
1066.85
265.714
62.6362
15.8607
11845.4
2826.55
655.114
147.579
37.8421
3494
1028.66
255.416
59.9074
15.2287
10636.3
2522.27
584.187
131.762
33.8661
3367.5
970.568
238.089
55.3949
14.0207
8704.17
2058.9
478.242
108.253
27.9241
3131.83
880.007
213.905
49.5313
12.5196
3957.19
981.757
232.84
53.304
13.8355
1513.35
432.082
104.435
23.8111
6.01284
6002.89
1466.76
344.608
78.3649
20.265
2233.07
629.074
153.091
35.4508
9.02661
2293.65
573.829
136.871
31.5242
8.21025
846.866
250.95
60.4494
13.7835
3.51124
783.072
195.144
46.704
10.8011
2.81622
322.984
88.6717
20.0547
5.60919
1.14025
-625.171
3.90698
4873.57
-1284.76
797.747
854.725
2485.35
3197.54
2024.22
3821.76
3304.11
5103.33
4073.22
5048.13
2088.03
2804.21
2184.37
2593.94
1132.5
1177.59
2209.17
1479.87
697.127
-64.8665
-298.533
-348.342
117.68
14279.3
4476.79
5111.2
3742.64
475.952
565.506
3425.09
-508.085
-49.735
-279.154
-203.229
7749.18
4309.51
2027.18
1442.61
3738.35
2288.97
842.487
1499.66
-719.281
-214.359
1047.99
914.06
8915.55
4144.89
5645.31
2902.42
3899.26
5020.64
1733.56
-246.156
1314.76
1447.28
1084.46
856.559
695.898
467.615
1111.48
844.33
619.564
409.218
166.04
603.765
489.61
358.985
219.909
74.4701
-57.9384
-48.188
-35.6523
-21.6541
-7.23649
-265.357
-220.028
-163.078
-99.6193
-33.417
-310.068
-257.561
-191.287
-117.069
-39.3137
104.363
87.7902
67.4643
43.2464
15.0827
9735.78
7654.28
5813.38
4546.68
3509.84
3535.48
2718.63
2161.43
1539.06
707.442
3794.84
2845.52
2131.09
1447.8
646.826
2728.93
1972.75
1478.52
988.84
376.717
418.377
300.645
267.818
193.84
77.8218
530.606
468.473
374.462
248.43
89.9426
2778.99
2168.34
1570.64
996.204
374.375
-217.099
-25.4332
52.454
65.962
30.318
-16.6656
15.6121
37.1241
38.5778
17.4478
-137.204
-30.501
30.8901
45.1842
21.1643
-190.708
-161.347
-118.242
-69.9692
-22.5746
5385.52
4409.43
3415.06
2715.33
2104.98
3232.49
2427.13
1821.26
1223.08
520.819
1747.94
1433.39
1082.11
693.891
250.42
1225.58
988.126
732.795
461.711
163.448
3044.42
2363.47
1703.5
1061.33
383.623
1963.76
1591.21
1179.38
738.205
256.277
718.431
578.899
426.667
265.572
92.1055
1293.01
1046.64
769.047
473.918
161.791
-615.841
-488.822
-346.789
-204.366
-67.0073
-188.798
-152.83
-108.601
-62.9009
-20.1417
900.382
729.635
540.261
337.554
117.347
790.647
644.443
478.593
298.563
103.067
5526.26
3759.37
2907.67
2309
1700.74
3055.25
2261.38
1630.79
1069.57
440.929
3994.19
3066.19
2266.94
1567.38
681.936
2248.96
1743.38
1271.44
824.482
327.834
3231.17
2545.38
1852.25
1154.91
408.962
3737.2
2690.32
1984.41
1317.42
503.37
1482.94
1192.72
873.478
538.606
184.639
-219.341
-180.799
-131.733
-78.5036
-25.7456
1121.63
905.841
671.456
421.617
147.465
-34042.9
-54830.1
-28352.7
-44288.3
-29888.9
-61063
-35648.3
-77648.3
-21786.1
-15141.9
-24036
-15292.1
-19894.2
-12981.9
-24158.1
-13086.5
-28657.4
-21999.6
-41079.1
-30066.1
-24692.4
-20061.7
-34201.7
-26084.8
-19521.4
-20313.9
-16181.7
-15886.8
-19391.8
-17871
-45686.2
-12647.3
-17817.9
-6802.65
-55203.9
-15464
-15903.4
-6172.61
-34444.8
-10861
-18253.9
-7096.5
-30949.8
-9571.92
-15270.8
-6209.3
-19075.9
-6967.43
-14562.4
-6475.19
-16544.3
-6052.55
-15042.1
-7433.65
-13231.4
-5325.79
-16609
-5926.49
-5812.54
-2060.14
-12690.1
-8879.43
-10939.6
-6973.3
-10991.6
-9067.46
-9506.22
-6929.72
-11254.4
-6782.58
-13304.2
-8818.86
-7547.25
-4728.75
-4123.95
-2691.2
-6528.03
-4630.57
-3531.29
-2622.32
-7704.76
-4454.24
-4258.49
-2315.51
-10034.5
-5152.92
-6818.15
-7673.94
-12871
-8735.61
-9689.23
-13063.8
-6761.16
-3061.49
-4101.1
-4399.57
-3620.19
-1469.84
-1876.87
-1676.23
-15413.9
-19145.6
-8808.77
-21886.8
-16025.8
-18261.3
-10131.8
-22346.3
-16170.1
-16541.1
-12065.6
-21179.3
-10815.5
-8652.4
-12137.4
-13592.3
-13614
-11648.5
-13817.8
-16398.6
-18019
-25560.4
-8287.62
-8903.09
-9869.7
-11898.8
-18074.3
-18412.5
-12921.8
-23512.6
-18238.6
-17074.8
-12703.7
-23169
-18188.7
-15095.9
-11946.1
-21635.4
-18054.7
-9487.79
-7580.46
-10336.8
-8421.6
-11757
-9775.6
-13174.4
-11432.3
-19661.7
-18185.5
-8779.52
-7771.86
-9402.31
-8704.94
-10686.7
-10583
-12950.8
-13386.1
-17876.9
-18945.4
-8256.4
-6588.47
-6082.27
-7547.67
-9701.94
-12651.1
-7348.95
-11710.1
-5804.15
-7247.11
-8271.58
-6787.32
-1592.5
-5041.76
-685.505
-1656.24
-3775.14
-8001.78
-1139.81
-2462.34
-1125.02
-4662.98
-522.828
-1559.54
-6029.16
-5883.38
-6918.37
-4332.56
-9308.52
-7331.26
-11194.2
-7563.79
-1743.1
-3268.82
-3497.52
-2044.78
-1894.08
-2272.44
-2536.58
-1879.57
-7906.08
-2718.86
-10737.5
-3650.95
-8088.22
-2848.6
-10996.9
-3932.16
-8049.22
-2810.5
-11600.1
-4429.28
-4595.25
-1373.55
-5939.75
-2232.38
-6942.91
-2655.78
-8491.64
-3175.28
-12297.2
-4844.53
-5623.93
-1821.01
-5863.12
-2724.46
-7258.96
-3269.21
-9601.77
-4065.33
-12932.1
-4864.63
-7587.42
-7043.76
-6048.66
-5813.6
-12673.3
-9747.52
-10499.9
-8698.62
-4875.07
-3893.68
-2041.86
-1387.16
-4710.05
-4207.86
-2010.98
-1933.05
-3938.54
-5497.43
-4466.87
-5881.01
-4371.67
-3285.01
-4388.81
-1357.47
-8489.16
-2735.43
1865.29
-536.415
-1784.46
-1138.1
-587.572
-298.947
-2433.33
-1437
-954.723
-486.31
-2683.19
-1561.71
-1511.9
-649.835
-3111.81
-1906.79
-2333.96
-1102.86
-1902.15
-606.221
-209.161
350.662
-6077.61
-6357.48
-4906.01
-4459.93
-8397.43
-8340.57
-7099.13
-5954.78
-3204.64
-3281.64
-4390.49
-4766.97
-3227.67
-2736.76
-1667.17
-1458.62
-4757.85
-3769.38
-2613.53
-2101.77
-1983.79
-1947.94
-820.883
-1014.11
-2022.32
-1173.87
-2497.55
-1486.63
-2767.96
-1755.92
-3613.38
-2258.4
-1081.91
-609.826
-1423.46
-704.728
-132.852
104.007
-629.122
-73.5994
-3261.84
-3712.28
-2291.2
-3018.79
-3307.13
-3834.4
-2350.08
-3019.33
-3636.27
-3757.55
-2510.49
-2905.18
-3806.58
-6143.31
-3018.61
-2236.14
-1741.71
-8855.08
-6122.95
-5066.78
-4402.61
-3403.67
-7153.91
-5684.6
-4380.13
-3522.37
-2159.5
-3974.46
-3631.6
-4228.45
-6247.12
-3937.13
-3416.23
-4107.01
-6014.55
-3906.99
-3472.03
-3862.19
-5646.69
-8258.2
-6312.23
-6939.68
-5181.94
-5451.58
-4167.95
-4729.2
-4012.7
-3667.97
-5241.15
-6680.06
-6209.08
-5242.93
-5027.96
-4148.39
-4081.06
-3546.95
-3829.06
-2459
-4442.17
-4341.11
-3124.4
-3138.93
-1523.07
-6611.74
-5668.28
-5182.9
-4012.06
-2205.06
-962.08
-3115.37
-2353.44
-3599.08
-1373.2
-833.767
-225.324
-4274.33
-2925.23
-1098.21
-763.603
-2762.87
-896.096
-585.372
-78.6691
-1601.52
-1414.1
-1312.28
-2246.8
-2324.18
-2295.03
-1769.72
-3028.13
-1870.95
-1020.11
-832.746
-1445.12
5.74389
190.057
592.596
141.431
-2514.23
-747.92
-4096.47
-366.798
-2449.94
-836.918
-4026.83
-389.489
-2113.24
-596.376
-3690.06
-275.056
-3591.43
-926.165
-2989.05
-785.382
-2741.12
-856.37
-2347.3
-499.322
-3486.46
-407.489
-4597.58
-1072.97
-3732.36
-720.429
-3198.92
-664.835
-2919.64
-455.696
-3661.12
-457.827
-613.331
-182.852
4.22033
103.095
-226.614
-65.9145
-3.19163
27.5669
-630.699
-178.264
-0.0138787
87.0706
-214.837
-47.8565
-25.1976
-6.49334
-674.113
-175.486
-22.9214
52.7836
-239.37
-8.92213
88.6844
99.9362
114.473
125.86
195.015
171.18
409.682
254.318
175.933
103.798
-422.379
-72.0923
93.0954
182.627
-338.289
-24.5212
47.3278
164.956
-708.354
-169.161
8.99578
119.119
-563.308
-91.9423
19.2664
203.577
-126.408
36.6903
110.354
146.806
-119.38
41.8183
60.0044
110.611
193.146
154.748
115.652
74.9462
127.718
118.407
78.7715
65.0775
-890.543
-256.586
-0.243092
175.346
-1024.28
-266.181
-84.0949
207.339
-869.646
-241.279
5.47544
179.782
-993.035
-252.866
-83.0435
206.725
-832.392
-216.504
-29.6245
137.474
-920.443
-227.467
-103.94
176.85
-601.061
-132.913
-41.0625
66.8642
-975.788
-224.238
-134.434
213.743
-558.819
-96.8223
-24.0971
138.484
-894.277
-191.89
-86.4899
133.007
-377.539
-71.1511
-12.7607
28.9415
-852.532
-178.565
-80.1634
134.305
-365.142
-67.1128
-13.4262
26.7756
-762.283
-150.215
-83.4771
127.442
-323.017
-55.0385
-9.60065
27.7618
-652.222
-122.084
-96.7401
108.6
-277.364
-42.6283
-15.6481
23.6367
-520.528
-81.3254
-73.595
88.9162
-172.101
-13.5147
-16.322
20.8774
-296.317
-12.3998
30.3143
99.6026
-26.2116
46.5043
35.4166
42.1369
-439.607
-58.4923
-16.8712
95.0617
-76.7837
21.281
9.64648
31.411
-110.135
43.5026
58.0771
91.5419
38.8454
72.2252
55.998
48.1822
95.249
101.651
68.6441
63.2454
123.695
100.485
63.5887
45.6618
20.1719
4.69054
1.37886
0.530912
0.284956
8.13326
2.16938
0.695714
0.280161
0.153017
21.9372
6.24805
2.21875
0.951069
0.532284
11.422
4.22585
1.72379
0.78294
0.446978
26.5297
8.55362
3.33449
1.49079
0.846588
30.119
12.1905
5.32506
2.48473
1.42965
35.1017
14.6447
6.46408
3.01444
1.72899
38.8232
18.1846
8.37518
3.95053
2.26706
33.1777
11.3328
4.6374
2.10951
1.20096
27.8512
9.94111
4.15241
1.90009
1.08376
29.5288
9.29727
3.69823
1.67143
0.952275
23.1705
8.73748
3.82393
1.7877
1.03082
35.7735
13.2444
5.56999
2.55
1.45227
27.693
11.2585
4.91486
2.27901
1.30264
32.4211
14.8903
6.81177
3.20531
1.83765
26.7756
12.3108
5.62269
2.64269
1.51406
23.1534
4.3606
1.14653
0.418877
0.220534
11.0293
1.80819
0.449746
0.161716
0.0848873
23.7908
5.20945
1.63838
0.670429
0.369911
11.2335
2.10399
0.625069
0.252156
0.138863
23.4567
6.02689
2.16811
0.945863
0.534122
11.0824
3.03648
1.19152
0.543831
0.312481
24.2936
7.93207
3.30438
1.53316
0.885902
13.8159
4.55951
1.95977
0.920895
0.534996
18.3252
8.17603
3.79633
1.82266
1.06311
-2369.23
-4627.49
-2487.35
-4672.87
-2793.41
-4768.1
-3143.98
-4956.4
-3090.49
-5012.29
-1374.21
-1961.06
-2111.69
-3142.36
-769.61
-1009.66
-251.672
-321.561
-12270.7
-2968.03
-691.388
-157.49
-40.1537
-3330.31
-916.141
-247.114
-57.2249
-12.8065
-12022.6
-2890.24
-673.648
-152.367
-39.1667
-3399.46
-1019.04
-255.039
-60.3722
-15.3628
-11298.1
-2707.49
-630.388
-142.681
-36.7777
-3293.84
-981.074
-244.94
-57.7292
-14.7523
-10152.2
-2421.27
-563.656
-127.741
-32.9992
-3160.14
-923.471
-228.119
-53.3799
-13.5876
-8360.28
-1988.2
-463.898
-105.442
-27.3192
-2928.65
-836.918
-205.13
-47.8016
-12.1533
-3891.75
-965.069
-228.998
-52.4929
-13.6525
-1432.38
-412.512
-100.237
-22.9715
-5.83315
-5839.42
-1429.49
-336.653
-76.7644
-19.9162
-2092.81
-598.796
-146.908
-34.2369
-8.77007
-2270.39
-567.055
-135.153
-31.1379
-8.11866
-808.646
-240.136
-57.8785
-13.236
-3.38783
-774.43
-192.02
-45.8187
-10.5872
-2.76289
-306.998
-82.8722
-18.4533
-5.235
-1.05072
-821.662
-2107.14
-7182.64
-108.45
-7901.14
-3498.3
-7707.58
-3655.55
-14050.2
-7511.31
-15645.8
-8243.84
-65.8856
-212.59
-331.284
-392.721
-333.197
-15.055
-112.247
-357.541
-550.706
-633.582
-522.449
-116.905
-51.7146
-51.2238
-160.047
-157.572
-226.856
-228.001
-209.627
-217.136
-165.591
-202.062
-61.1345
-125.559
793.503
1848.02
3037.71
2159.64
1918.85
812.519
650.143
1749.89
2906.07
3436.83
2862.27
1202.54
-59.1382
-49.6968
-37.4211
-23.1958
-7.85253
-190.975
-160.655
-121.112
-75.1469
-25.4542
-297.468
-250.111
-188.454
-116.887
-39.5847
-352.439
-296.134
-222.983
-138.23
-46.7995
-299.323
-251.766
-189.73
-117.667
-39.8431
-17.1162
-17.62
-15.3449
-10.3149
-3.60101
-100.605
-84.3966
-63.4389
-39.2699
-13.2846
-320.665
-269.234
-202.578
-125.51
-42.4806
-493.411
-413.798
-311.013
-192.543
-65.1438
-566.735
-474.408
-355.95
-220.09
-74.4198
-466.598
-389.91
-292.097
-180.42
-60.9777
-106
-90.0182
-68.3665
-42.5911
-14.445
-46.476
-39.115
-29.4988
-18.3077
-6.20192
-46.0678
-38.8058
-29.2927
-18.1933
-6.16572
-143.92
-121.218
-91.4943
-56.8245
-19.2578
-141.736
-119.421
-90.17
-56.0178
-18.9873
-203.936
-171.705
-129.554
-80.4384
-27.256
-204.913
-172.474
-130.092
-80.751
-27.3581
-188.586
-158.908
-119.981
-74.528
-25.258
-194.982
-163.94
-123.515
-76.5976
-25.9375
-149.43
-126.31
-95.6029
-59.4625
-20.16
-181.167
-152.022
-114.285
-70.7402
-23.9278
-57.191
-50.0773
-38.9322
-24.5601
-8.36182
-112.908
-94.9835
-71.4932
-44.2447
-14.955
694.362
567.934
418.045
255.67
86.1736
1605.49
1305.42
958.052
586.301
198.246
2597.92
2087.91
1525.08
936.586
320.072
1829.26
1463.01
1069.87
659.92
226.317
1654.93
1326.63
965.614
587.843
190.582
724.831
593.074
438.183
268.16
84.8857
569.417
466.117
343.27
209.948
70.7445
1525.59
1244.08
914.426
559.445
188.84
2511.65
2033.38
1488.87
911.224
308.633
2943.71
2366.36
1727.23
1058.3
359.926
2448.38
1964.42
1432.3
877.302
297.415
1037.42
839.449
617.102
380.235
128.977
89.9468
239.45
363.327
432.052
381.786
81.1072
149.144
397.944
595.9
680.749
565.361
152.48
69.258
65.5331
179.745
174.63
249.738
249.02
234.833
239.016
200.069
207.033
139.083
155.033
-703.302
-1713.24
-2813.06
-1884.05
-1628.69
-521.593
-614.847
-1697.43
-2799.42
-3258.73
-2620.48
-922.587
80.9878
68.3258
51.6654
32.1375
10.9011
215.379
181.475
137.043
85.1527
28.8667
326.605
274.995
207.515
128.869
43.6732
388.234
326.737
246.45
152.995
51.8399
343.572
289.627
218.784
135.959
46.0894
77.12
68.8029
54.4943
34.8942
11.981
134.133
113.007
85.3355
53.0255
17.9763
357.41
300.622
226.625
140.63
47.6402
534.57
449.014
338.041
209.56
70.9557
609.761
511.295
384.317
237.981
80.5356
505.788
423.556
318.007
196.779
66.5736
138.374
117.693
89.5832
55.9367
18.9999
62.399
52.6832
39.8673
24.8131
8.41923
59.053
49.8678
37.7437
23.4946
7.97243
161.808
136.47
103.157
64.1462
21.7541
157.226
132.628
100.269
62.3576
21.1488
224.729
189.45
143.136
88.9709
30.1664
224.022
188.79
142.585
88.6033
30.0371
211.501
178.473
134.964
83.9446
28.4706
214.9
180.975
136.583
84.8227
28.7459
180.844
153.203
116.253
72.4692
24.6029
186.118
156.692
118.206
73.377
24.8597
127.965
110.408
85.0531
53.5071
18.2302
139.955
118.331
89.5694
55.7039
18.8829
-612.847
-498.849
-365.567
-222.923
-75.0519
-1483.98
-1202.7
-880.251
-537.914
-181.867
-2393.68
-1913.36
-1391.48
-852.892
-291.697
-1568.48
-1230.8
-884.743
-539.595
-184.19
-1373.62
-1071.34
-758.062
-449.985
-141.004
-439.79
-331.617
-223.423
-124.216
-32.9622
-537.68
-439.378
-323.088
-197.423
-66.5056
-1478.65
-1204.75
-884.935
-541.263
-182.718
-2414.78
-1950.74
-1425.7
-871.649
-295.183
-2778.54
-2222.12
-1614.28
-986.013
-334.977
-2220.46
-1762.11
-1271.25
-772.626
-260.809
-771.466
-601.478
-426.175
-255.283
-85.1019
-1808.81
-1139.46
-495.568
230.075
482.26
604.803
146.429
-11995.6
-2504.86
-3760.15
-1748.12
-83.6619
-3783.78
425.811
1828.23
743.544
-6610.92
-3249.91
-1047.87
-911.425
-3380.51
-1628.93
-543.858
-1164.45
1350.51
669.346
-716.015
-494.745
-8294.26
-3763.33
-4826.26
-2389.19
-3469.56
-4011.95
-1342.37
654.289
-798.684
-990.714
-645.119
-474.604
-422.622
-356.252
-761.595
-513.586
-340.171
-216.038
-93.1167
-420.906
-333.903
-240.142
-145.467
-49.138
208.715
177.467
135.043
84.3141
28.653
432.514
362.841
272.499
168.424
56.8992
542.196
454.74
341.537
211.163
71.3602
137.248
119.84
92.4236
57.6299
19.3964
-8062.23
-6447.26
-5044.08
-4268.23
-3751.1
-1651.52
-1052.18
-885.814
-759.495
-446.501
-2622.53
-1852.11
-1385.38
-998.482
-510.617
-1129.06
-710.919
-550.678
-409.079
-164.215
-54.0415
-34.9145
-27.5301
-24.3059
-12.6035
-3049.62
-2373.47
-1712.83
-1083.81
-407.285
390.853
328.977
242.533
144.528
46.4417
1557.08
1240.85
893.718
538.563
180.107
662.135
548.558
405.68
247.13
82.5197
-4345.08
-3573.57
-2819.72
-2408.47
-2112.49
-2254.65
-1578.92
-1169.9
-820.05
-391.664
-841.936
-650.538
-478.8
-314.636
-122.029
-739.733
-571.559
-413.539
-261.753
-95.8301
-2744.63
-2128.09
-1538.59
-967.332
-355.458
-1350.74
-1057.63
-764.863
-475.434
-166.229
-444.202
-342.15
-243.627
-149.853
-52.581
-988.665
-787.539
-571.599
-350.581
-119.956
1190.82
980.271
723.532
441.59
148.093
602.081
505.273
378.21
232.289
77.9394
-593.146
-463.785
-335.094
-208.274
-73.3636
-407.347
-315.852
-226.532
-140.224
-49.1726
-4944.05
-3239.38
-2494.4
-2055.07
-1647.82
-2689.67
-1930.89
-1363.71
-894.264
-379.352
-3182.22
-2348.59
-1692.22
-1196.54
-541.998
-1763.42
-1310.09
-926.693
-601.884
-251.792
-2838.22
-2207.44
-1592.89
-992.637
-354.219
-2816.62
-1883.67
-1363.99
-931.473
-374.812
-1128.02
-890.524
-643.086
-394.663
-135.842
589.778
496.413
372.895
229.829
77.3292
-647.344
-496.871
-356.155
-222.955
-79.7939
-7.82468
-5.15764
-1.32775
-22.0721
-95.4893
-230.533
-24508.7
-21718.2
-20390.2
-23175.7
-18108.6
-14437.7
-16081.2
-12291.7
-21688.4
-19338.8
-20031.8
-19107.5
-17674
-15176.7
-18672
-20425.3
-18340.9
-16595.8
-18643.3
-15515.7
-13176
-13645.5
-10985.7
-19692
-17851.1
-18203.8
-16879.3
-15865.6
-14778.3
-15495.5
-16288.8
-14988
-13284.2
-14493.9
-13081.8
-11308.5
-11495.5
-9867.14
-16691.5
-15577.3
-15578.2
-14604.4
-13634.7
-12599.1
-13279.6
-11605.6
-10952
-9498.46
-10061.5
-9874.49
-8896.9
-8629.48
-7846.67
-12318.9
-12563.4
-11650.8
-11885.2
-10461.1
-9507.88
-10626.8
-7520.16
-7203.89
-6160.87
-6426.98
-6672.92
-6065.79
-5735.48
-5278.09
-8236.15
-8316.05
-7877.04
-7833.92
-7212.35
-6550.24
-7151.47
-2724.69
-2631.71
-2237.1
-2316.75
-2474.68
-2308.77
-2109.07
-1960.62
-3103.19
-3144.07
-2924.66
-2846.3
-2711.07
-2492.26
-2690.58
-9022.85
-8864.94
-13691.2
-14754.7
-8437.52
-7482.82
-12014
-9778.65
-6658.05
-4633.2
-6638.84
-4685.96
-6642.1
-6425.54
-4861.99
-8939.85
-8482.95
-12249.8
-13335.3
-7872.33
-7102.72
-10673.6
-9150.76
-6590.71
-3906.21
-6497.15
-4190.43
-5942.06
-5769.71
-4672.81
-8075.86
-7685.91
-10396.1
-11143.2
-7200.31
-6657.05
-9297.8
-8183.84
-5356.36
-3940.72
-5344.83
-4255.14
-4966.37
-5012.96
-4546.87
-6398.94
-6142.3
-7781.43
-8181.7
-5810.23
-5397.28
-7183.1
-6513.51
-4864.74
-3332.57
-4791.75
-3630.7
-4466.79
-4474.07
-3851.5
-4339.95
-4191.45
-5129.13
-5332.82
-3900.58
-3585.77
-4817.47
-4398.48
-3308.57
-2433.16
-3249.25
-2632.87
-3039.46
-3016.17
-2651.53
-1600.35
-1548.39
-1870.97
-1935.63
-1437.59
-1315.32
-1769.68
-1624.12
-1090
-878.778
-1150.89
-982.453
-1114.77
-1096.57
-957.194
8396.6
27059.2
6702.31
28293.7
4982.58
29076.6
7765.63
44206.3
9521.35
60610
9513.16
44503.4
9229.79
37130.3
9616.52
32601.2
5816.55
3706.25
15626.3
9384.49
5629.99
3058.24
16806.9
8337.6
6478.81
4855.84
20413.4
14786.9
4912.37
3707.69
20481
15278.6
11629.4
4963.6
10131.8
4587.84
4789.13
11033.7
38928.6
10412.3
13977.6
4497.64
49495.8
13226.4
12816.7
4134.32
28203.5
8662.07
14489.1
4912.22
24880.2
7840.34
8185.43
4059.21
10873.5
4328.19
8963.31
4820.89
10752.6
4226.87
11049.9
6362.33
9253.15
4128.81
13192.8
4826.09
4477.21
1588.16
15066.4
10697.6
9068.73
6726.11
15859.1
13092.5
8525.86
7337.09
8972.38
6287.78
13191.1
9195.86
5782.06
4271.42
2686.49
2205.55
5308.58
4553.1
2458.24
2403.19
5788.69
3894.82
2759.48
1774.92
8291.04
4597.44
6442.78
7600.9
11757.6
8431.67
9668.83
13271.4
5303.41
2574.57
3680.79
4260.06
2481.86
1066.11
1472.01
1527.13
11498.4
20543.8
7671.42
22784.2
13320.7
19980.6
9386.98
23616.9
14827.2
17881.6
11851.9
22670.3
15426.2
17060.2
12786.3
12649.4
13575.3
17160.2
17250.7
18200.7
19356.7
27372.1
13993.7
11845.1
11034.7
12545
18939.5
24084.3
21769.7
27736.1
27008.9
22005.9
20587.8
27201.4
26320.9
18963.9
18706.6
25299.5
25187.1
12741.4
10286.3
13174.4
11922.1
15050.5
14163.8
16790.8
16715.9
22858.5
24043.9
11792.6
10679.5
12290.6
12730
13396.6
15192.5
15425.1
18270.1
19978.8
24145.9
10040.3
7925.36
6673.06
8261.44
12615.8
14866.4
8534.71
13184
6020.29
7630.95
9247.54
7721.09
1702.55
5352.33
650.789
1766.57
4222.76
8646.23
1334.54
2814.6
1063.84
4782.06
370.118
1553.17
6121.87
6146.69
7033.48
4585.08
9905.02
8117.05
11687.5
8400.21
1665.8
3325.63
3491.45
2116.05
1748.97
2237.14
2476.9
1874.03
17622
10832.9
3487.25
19777.3
11527.4
3802.74
16885.7
10695.7
3672.94
19348.6
11499.2
3794.72
15499.3
9843.24
3270.4
18738.3
11480.5
3855.56
7228.02
4279.09
1282.57
9965.02
6674.88
2294.61
12406.7
8541.1
2947.66
14692.6
9652.72
3230.84
18442.2
11696.2
4073.14
8267.36
5026.13
1723.71
9827.85
7170.26
2737.87
12117.2
8938.82
3329.55
15014.1
10606.3
3841.78
18713.2
11936.7
4285.13
272.796
2050.15
2851.86
4158.86
2407.08
2707.47
5972.02
5613.8
574.111
942.077
611.175
976.067
443.114
1317.06
815.173
1732.43
3027.61
1501.18
3926.16
2308.15
2022.37
3466.27
3333.84
425.352
6527.07
1201.14
-2519.43
-21.2192
1422.56
741.263
745.499
379.559
9076.81
3785.75
2434.64
1391.89
9206.25
3908.57
3085.42
1758.52
9119.46
4168.2
4364.84
2778.1
2978.69
1944.21
1003.12
979.119
13034.9
11417.6
5988.06
6132.31
14788.9
13728.5
7173.35
7135.65
4984.59
5058.27
10632.4
8666.31
3352.54
3535.31
1560.77
1937.68
4220.56
4177.81
2011.31
2246.54
2678.58
2962.24
1187.93
1726.4
4154.45
2568.82
4046.47
2498.63
6702.5
3448.59
6181.77
3532.86
2272.77
1748.04
2445.94
1530.19
971.297
917.011
1425.59
806.162
10440.3
6499.82
4758.11
4368.4
10410.8
6794.57
4758.7
4356.98
10997.9
7374.92
4828.3
4299.67
14323.1
16345.2
12352.5
7720.95
3807.93
15491.8
13424.7
11669.7
8943.28
4936.47
14435.2
12298.8
9245.54
6581.94
3530.13
4826.8
3802.85
4122.76
4178.82
5212.43
3938.13
4263.89
4240.27
5846.36
4316.26
4473.78
4377.82
11663.7
8362.26
10071.3
6934.24
7317.44
5671.37
6229.82
4967.43
4269.93
4499.02
9731.69
8511.13
8013.79
6885.09
6305.66
5507.62
4984.03
4630.45
3302.4
4258.09
7129.35
4872.07
4650.09
2916.71
9896.72
7643.63
6733.48
5532.95
3509.67
2138.55
5180.25
3745.65
4489.87
2159.07
1430.09
792.016
5035.42
3701.2
1528.45
1283.79
3638.98
1599
1252.3
617.561
2562.95
2209.04
1876.09
2592.27
3645.23
3194.59
2403.86
3280.75
2619.26
1555.96
1373.18
1774.73
639.633
268.52
-64.9705
206.218
2496.16
1053.83
311.273
2669.23
729.673
196.411
2665.56
1194.55
367.093
2742.92
782.787
221.24
2773.09
1321.17
358.167
2834.72
844.707
209.298
5410.45
2971.34
792.058
4280.78
2201.69
593.937
3632.51
1812.03
521.172
3119.91
1488.83
361.096
2943.87
873.728
159.049
6497.71
3493.1
1051.83
5187.72
2659.7
781.667
4183.69
2103.66
629.529
3452.39
1543.03
411.404
3212.69
843.17
215.828
1339.25
445.551
109.306
-39.3715
554.255
191.138
55.5461
-2.07717
1407.58
479.754
135.376
-12.0609
692.634
253.195
113.577
47.791
1484.91
517.718
183.941
36.3196
1120.31
443.974
134.669
21.7801
763.59
354.41
63.6096
-32.1092
595.869
328.178
136.507
59.4599
1153.22
445.291
110.056
-62.3038
948.413
358.613
137.859
-47.875
1414.33
496.885
159.926
-15.5395
1236.9
431.627
163.927
-75.0651
852.456
368.399
109.432
-24.9835
676.641
284.064
126.759
3.25205
538.221
273.634
123.638
58.0358
403.855
203.776
110.839
50.6331
1672.47
542.076
129.301
-89.5173
1583.18
494.901
176.82
-116.199
1662.8
543.405
135.612
-86.0822
1533.58
478.732
177.639
-113.914
1619.95
535.09
174.993
-44.8774
1438.84
449.468
197.726
-82.703
1405.15
480.439
206.991
38.4582
1572.86
493.932
257.242
-91.8906
1219.95
414.922
193.559
-8.89811
1190.58
342.845
147.35
-66.031
459.678
123.444
40.7
-6.82733
1242.45
363.385
154.795
-61.2519
483.897
132.468
47.097
-1.19172
1294
387.722
175.464
-48.7741
507.087
143.686
54.4905
4.62218
1179.79
361.643
190.289
-31.309
502.953
147.217
68.5391
14.7094
1081.07
349.423
189.07
-6.68132
458.943
150.808
84.5051
26.7859
701.853
245.926
103.199
-4.23003
404.926
167.393
81.2456
35.3048
846.014
273.352
130.797
-9.31061
430.626
160.436
84.8159
32.3338
526.203
210.084
90.9273
10.4197
328.487
153.879
73.4118
37.3129
322.105
161.048
86.9704
41.2189
232.905
130.243
70.7119
42.6673
-2.59167
1.39266
1.05488
0.551341
0.321024
0.135755
0.929777
0.5834
0.294997
0.170226
4.29593
4.21606
2.26802
1.09935
0.626778
7.57156
4.08931
1.96903
0.926046
0.523357
10.5212
7.2085
3.62711
1.72862
0.981588
25.3449
13.2141