/*--------------------------------*- C++ -*----------------------------------*\
  =========                 |
  \\      /  F ield         | OpenFOAM: The Open Source CFD Toolbox
   \\    /   O peration     | Website:  https://openfoam.org
    \\  /    A nd           | Version:  11
     \\/     M anipulation  |
\*---------------------------------------------------------------------------*/
FoamFile
{
    format      ascii;
    class       volScalarField;
    location    "1";
    object      gradTy;
}
// * * * * * * * * * * * * * * * * * * * * * * * * * * * * * * * * * * * * * //

dimensions      [0 -1 0 1 0 0 0];

internalField   nonuniform List<scalar> 
5712
(
13029.5
7519.69
20965
13838.8
22962.8
17081.2
35670
44768.4
47075.9
58173.4
30623.9
26767.6
19421.9
15516
9809.41
6653.15
21377.7
21414.4
18620.9
21628.8
28832.3
25224.4
33787.3
26804.4
9055.8
6386.41
5139.81
3858.38
10680.1
8653.49
6591.82
5429.51
20351.1
20710
20356.1
16505.7
15361.8
12415.5
12345.3
14162.4
19826.3
19882.9
42361.9
43990.2
29446.1
30542.9
17546.9
14805.1
18690.5
13237.4
8704.26
9062.03
7485.98
11379.3
3942.23
5009.95
10194.5
15040.9
6157
7462.77
11049
20108.7
7760.95
13322.1
2914.18
7839.74
2433.52
5823.04
18642.3
23218.1
19678.6
23387.1
22582
22633.9
23438.9
22614.5
17078.6
23409.2
17167.1
22934
19586.5
23387.8
19697.9
23427
23903.1
22493
23966.3
22367.6
15919.6
23615.9
15454.5
23771.4
20358.1
24824.5
25698.2
37239.1
21609.5
29138.2
25504.2
41029.6
19292.1
21648.2
25776.3
35540
19117.6
20189.8
26074.1
35197.3
6962.67
9383.07
17994.7
32539.2
8424.76
9803.75
22697.5
36213.7
10154.4
10329
28107.6
39149.8
26021.9
26762.4
23108.7
23373.1
36281.5
26636.8
26045.5
23406.2
21057.7
42237.4
24416.7
24886.6
23108.3
24423.5
47160.2
2549.52
3101.16
5656.77
13879.5
3552.89
4138.46
7529.33
15004.3
5108.85
4356.45
9900.72
16461
25661.1
24137.8
23846.3
22229.1
21621.3
18609.6
16877.7
14362.9
12656.7
18603.2
23706.8
21910.5
24679.2
23329.3
22330.5
20182.3
19372.6
16966.1
13314.5
18311.8
24917.7
27732.9
24994.5
28651.8
23400.7
23782.4
23019.7
24251.6
23485.3
23734.6
23251.2
22950.5
24866.8
28869.7
24831.1
28934.6
22446.8
24706.9
22334.5
24735.5
23579.4
23680.5
23628.9
23714
20393.6
19323.7
13358.6
15143.4
20316.4
18900.7
13212.2
15456.6
20630.1
19211.3
13626.3
15092.4
20720.2
19010.5
14048.2
15063.7
1926.1
1162.03
735.669
1036.87
610.18
550.538
2730.52
1389.35
953.694
1969.47
1434.54
1128.11
2942.42
2054.43
1894.95
3386.44
2496.5
2104.04
21373
17554.8
15149.2
20225.8
17157.8
15057.9
14878.5
12599.6
11322.5
10713.4
8277.41
7190.45
5230.54
3375.76
2646.22
19719.3
16525.4
14245.8
20987.2
17275.7
14761.5
16147.2
12360.9
10306.8
10931.7
7678.14
6322.7
5512.23
3313
2440.07
28554
27476.7
31519.1
27810
32585.7
27867.3
39947
29766
21577
21313.6
21446.8
19456.9
24299.7
22306.2
24080.8
20116.8
23810.2
23312.1
21872.3
23044.9
28287.4
25811.4
29598.4
30242.1
32687.1
34033.9
24309.6
25412.4
21783.7
21244.6
26046.7
26856.9
16179.8
8633.06
15276.6
9559.34
16491.3
8707.71
15301.3
9497.24
16336.5
8737.31
15355.1
9908.54
15029.8
10370.7
15259.8
10256.5
21487.1
17894.6
21688.6
18068.5
24104.9
21394.3
24728.3
21418.3
20912.2
14695.3
21498.3
14342.7
22401.9
18099.4
22796.3
17926.5
25641.1
21390.8
25791.2
21175.3
20904
14821.9
20924.7
14738.4
13349.5
8732.85
11359.6
7362.02
12258.9
7784.68
10808.8
6865.55
13781.7
9288.86
11594.5
7590.93
13835.2
9596.55
11563.7
7633.4
2499.94
1288.94
4613.89
2612.29
2645.61
1546.27
4892.17
3053.18
3216.99
2288.17
5383.09
3884.62
12467.9
19917.9
8884.24
8473.87
6150.83
19203
12931.1
7358.52
7394.88
5046.29
20395.6
15624.2
12133.5
9284.1
5995.16
674.754
447.192
1607.07
1196.88
905.619
558.586
2101.73
1625.52
1524.67
1030.92
2897.53
2279.03
18992.7
17410.5
12367.7
11082.9
7731.6
7170.53
6429.41
5324.37
4240.69
3327.81
18126.4
15633.9
13556.1
11095.8
10211.2
8299.98
7615.66
6191.07
5175.01
4609.69
14234.7
10676.6
14513.6
10651.4
17733.9
14024.9
17938.8
14154.7
11700.4
8696.69
11217.5
8544.03
14637
10617.1
14573.1
10623.9
17997.8
14599.2
17874.9
14607.8
11993.2
8661.13
11976.1
8770.87
8870.28
6788.6
6074.52
5720.82
8459.98
6517.04
5788.56
5343.81
9284.13
6972.26
6241.51
6045.06
9485.32
6970.49
6474.04
6124.49
996.347
828.243
659.023
4246.08
2157.77
1695.7
979.568
917.192
782.004
4708.57
2599.87
2115.94
1406.51
1482.13
1451.25
5382.06
3338.54
2842.5
15028.3
12769.4
11375.4
9623.24
8422.93
7750.94
6563.8
5839.36
5496.96
5200.63
4565.88
4207.13
6345
4225.97
3625.95
13084.3
10808.3
9418.45
9046.76
7475.29
6625.97
6965.97
5733.86
5101.14
6169.64
4922.27
4260.21
7899.17
4815.76
4054.25
4552.7
2542.62
1467.76
862.837
5101.07
2753.74
1546.8
890.039
4579.5
2545.62
1472.69
867.171
5207.63
2813.36
1589.42
914.654
4581.76
2531.37
1504.8
891.705
5319.96
2854.57
1657.92
955.937
5709.1
3009
1653.82
941.644
5847.55
3107.5
1679.28
954.527
4866.47
2694.87
1580.6
919.769
4091.38
2409.37
1467.67
873.672
4310.45
2459.76
1493.42
882.979
3801.01
2282.24
1415.13
847.997
5234.99
2868.42
1632.32
938.541
4263.39
2499.61
1497.83
891.003
5430.42
2980.85
1671.38
960.938
4335.9
2561.42
1527.16
910.694
3485.49
2198.93
1352.56
823.491
2419.45
1804.35
1213.2
770.521
3504.16
2195.4
1355.8
824.736
2519.01
1832.03
1222.66
775.51
3601.71
2206.43
1379.7
840.681
2805.74
1915.69
1255.85
793.753
3591.23
2173.09
1372.3
862.48
3061.35
1980.03
1303.74
805.176
3413.22
2131.75
1355.27
836.086
1464.16
1499.74
989.118
298.592
529.111
1339.23
905.782
298.001
1644.67
1560.91
1014.79
314.303
724.912
1404.86
927.196
304.846
1995.82
1671.75
1049.38
314.672
1074.87
1518.87
957.058
309.161
2445.78
1809.63
1110.17
341.527
1481.21
1652.1
1003.18
323.504
2783.59
1943.69
1186.76
391.646
1672.86
1764.39
1047.29
336.447
3020.09
2100.69
1219.74
379.308
1628.5
1907.37
1130.63
359.794
2927.1
2033.02
1197.26
378.015
1549.35
1843.02
1088.54
346.478
3065.45
2145.64
1226.01
357.74
1633.02
1957.5
1153.02
361.843
3126.47
2187.34
1251
363.067
1719.21
2002.16
1178.78
369.092
549.883
330.773
183.997
90.3781
26.9162
547.376
330.595
184.239
90.5361
26.964
557.358
334.351
185.42
90.9269
27.06
558.769
335.128
186.089
91.2676
27.1578
573.997
339.26
187.205
91.604
27.2372
574.185
340.174
188.169
92.1019
27.3807
579.15
345.511
190.801
93.227
27.6881
591.236
352.613
194.304
94.7488
28.1078
590.144
344.988
189.674
92.6139
27.5089
623.689
351.24
191.323
93.1449
27.64
592.502
343.354
188.514
92.0717
27.3571
622.621
348.833
190.049
92.5926
27.4882
594.27
349.593
191.999
93.6181
27.7845
634.989
355.673
193.406
94.0389
27.8856
608.277
356.555
195.284
95.0299
28.173
649.743
361.896
196.23
95.2469
28.2182
560.569
331.949
183.896
90.2464
26.8734
582.642
333.499
183.887
90.1697
26.8476
567.922
334.818
184.986
90.6568
26.9798
588.851
335.736
184.737
90.4899
26.9305
583.399
339.563
186.663
91.2855
27.1434
602.51
339.813
186.224
91.0528
27.0771
605.386
344.665
188.31
91.8902
27.3001
618.654
344.126
187.863
91.6884
27.2443
625.345
347.256
189.218
92.2369
27.3908
13883.1
21679.7
14296
21755.5
14826.7
21732.1
14953.6
21443.2
13882.4
20046
12262.7
13929.2
12473.1
14974.8
12230
13628.1
12409.9
13723.6
12496.5
2157.12
466.057
105.83
18.9381
13946.7
3998.73
980.345
224.995
40.2357
12470.9
2118.41
455.199
103.107
18.4161
13884.1
3941.18
964.235
220.527
39.1358
12311.2
2068.96
442.115
99.9377
17.8389
13676.2
3855.38
940.701
214.803
38.1173
11865
1956.82
415.714
93.9844
16.7963
13174.9
3692.07
900.039
205.65
36.5163
10920.3
1757.61
373.614
84.9566
15.2481
12161.4
3422.11
838.822
192.612
34.3061
9246.37
1550.65
341.616
79.2736
14.3844
9475.92
2815.87
712.037
166.971
30.1319
9774.46
1612.04
350.55
80.7103
14.5781
10303.6
3052.43
763.585
177.269
31.767
9013.04
1526.37
337.947
78.6679
14.2992
9145.48
2699.85
683.718
161.021
29.173
8937.46
1507.33
333.476
77.6775
14.1119
9096.96
2665.21
673.248
158.976
28.7709
36510.2
52862.4
51424.5
35222.1
20163.4
21326.1
29847.4
31438.8
23770.5
26918.8
38301.9
52956.9
48655.7
65118.5
31524.5
36233
24478.1
26343.4
13181.2
14529.2
4615.7
2860.32
434.698
286.587
323.714
269.747
370.264
4224.87
3848.4
2200.98
2933.46
2599.48
1039.98
1570.71
1296.62
787.941
929.252
714.957
3891.37
1798.87
929.573
804.291
1147.4
961.971
688.447
605.197
511.315
430.437
674.833
596.98
4215.13
2335.72
2738.63
1549.68
1173.17
1838.08
693.321
464.896
786.023
8997.82
8339.42
7767.76
7933.03
11923.1
6063.49
6404.17
6413.22
6639.96
7336.58
1116.43
1533.73
1810.49
1976.11
2055.08
745.609
1044.4
1253.64
1382.94
1444.38
841.92
1178.06
1411.39
1553.48
1619.91
703.823
990.003
1192.32
1317.74
1377.11
958.172
1330.7
1584.2
1736.92
1808.45
8526.5
8138.77
7372.67
7142.52
10340.9
7758.96
7269.12
6459.6
6100.86
6642.19
4855.01
5344.12
5330.95
5313.88
5505.31
6052.29
5892.58
5299.09
4912.81
4841.59
5365.43
5287.4
4768.65
4362.05
4201.3
2506.02
3127.83
3400.8
3514.07
3570.04
3594.31
4160.49
4270.66
4266.98
4295.16
3017.18
3574.54
3718.58
3715.86
3702.62
1950.4
2530.68
2835.58
2980.23
3041.68
2255.89
2843.68
3108.66
3210.28
3246.93
1784.79
2343.65
2649.48
2797.23
2857.37
8000.13
7881.09
7339.72
7298.44
10662.5
4101.64
4753.23
4945.02
5071.62
5313.39
2276.15
2910.06
3230.76
3390.8
3475.25
1993.98
2598.54
2934.33
3116.42
3211.16
2753.39
3427.6
3744.6
3917.98
4047.84
2358.14
3026.4
3384.7
3588.12
3710.21
1728.12
2296.31
2639.98
2840.43
2943.88
1533.04
2061.68
2388.02
2573.93
2662.68
1307.18
1780.32
2079.69
2247.35
2322.11
1108.34
1526.83
1803.16
1964.61
2038.63
1694.63
2247.4
2567.5
2736.62
2813.31
1511.86
2031.59
2349.39
2526.7
2609.22
8413.27
8047.21
7548.05
7668.72
11406.8
5109.86
5637.79
5780.96
6013.17
6530.59
6102.23
6629.53
6541.73
6697.26
7723.88
3624.17
4370.84
4707.59
4946.49
5198.81
2828.75
3551.01
3917.19
4139.68
4302.76
4197.41
4888.35
5123.78
5305.74
5608.26
1740.18
2310.55
2651.98
2847.45
2946.42
1191.72
1631.41
1917.92
2085.56
2163.89
1954.39
2559
2903.47
3096.18
3197.6
20838.8
13964.3
21367.1
15421.5
27321.6
40068.8
28742.2
40025
21817.9
22812.6
18861.6
22238
24261.8
22716.4
31642.3
25352.7
16431.3
15912.3
8049.09
7093.76
17803.6
16755.9
9189.58
7696.34
22217.6
23810.3
22420.4
20161.4
23270.1
15273
12338.5
14215.2
20049.3
19963.2
42356.8
44094.3
28957.6
30449.3
18540.1
15043.2
19868.5
13478.5
9710.56
9323.68
17290.9
19508.7
7190.92
7985.32
18844
22005.1
8892.62
9994.32
17662.5
25482.5
10196.6
16135.8
3498.7
8833.48
2556.7
6023.38
19988.4
22641
19962.9
23089.6
21148.5
21245.4
22521.1
21877.4
18749
23649.7
21359.5
23333.7
19626.2
23240.3
19692.7
23380
23467
22133.8
23845.6
22258.9
16521.4
23733.7
15586.2
23803
21789.2
26582.3
26319.3
37926.4
23888.6
31888.1
26554.3
42134.2
19993.4
22544.8
26091.6
35917
19312.6
20450.1
26165.2
35316.6
23842.5
25639.1
30657.5
46165.8
23736.9
24102.8
32682.8
46570.5
23003.6
22423.5
34908.8
45746.5
20146.6
20301
22418.9
24922.5
39371.8
19372.2
18673.1
23750.3
22502.1
45460.8
20212.9
21818
22523.2
25679.7
48622.7
13057.8
11640.6
12872.8
17326.9
14346.6
12824.1
13283.7
17690.9
15902.5
13399.6
13804.6
17905.9
18410.9
17105.8
17828
16786.6
21648.7
19542.1
18387.8
16142.6
14361.2
18539.8
19571.8
18728
21460.6
21025
21412.2
19686
20226
17689.3
14045.5
17758.2
23538.6
26203.5
24377.5
27883.5
21532.9
22084
22175
23441.4
23312.5
23417.1
22863.5
22406.1
24586.7
28526
24749.9
28837.3
22068.7
24329.6
22225.1
24628.1
23494.8
23536.2
23601.8
23673.4
20563.2
19336.7
13591.1
15218.4
20655.3
18979.2
13670.8
15526.5
20708.1
19218.8
13738.7
15143.8
20742.4
19013.1
14083.8
15081.3
10444.2
10634.2
4674.87
4232.9
11659.2
11190.9
5232.28
4944.3
11296.4
10358.3
5902.99
5619.9
16242.7
15291.8
16469.6
16158.6
17111.6
16140.9
13401.3
11606.6
7038.6
5624.31
18224.4
16910.8
20343.8
18927
16879
15056.5
12622.2
10370.3
6404.83
4539.04
23201.6
21652.2
29283.3
25005.7
26565.6
23200.2
37450.8
27501.2
20847.4
16626.5
23141.7
17742.7
20661.8
16941.1
23246.8
18051.4
21643
18696.3
19330.9
17562.2
21183.8
23002.9
28259.9
29851.7
31708.6
33774.7
23037.8
24994.3
20613.1
20914.8
24444.2
26322.4
13140.8
9424.32
13768.2
9709.46
13459.9
9365.02
14028.7
9601.13
13411.8
9251.45
14085.9
9866.79
14258.1
10249.6
14993.2
10205.2
17507.1
16599.7
19746.1
17266.8
20611.7
19444.1
22943.2
20359.1
18953.8
14308.2
17613.1
13935.7
21455.8
17674.2
22519.1
17797.4
24818
20869.5
25561.3
21020.3
19915
14581.6
20627.9
14662.1
12810.2
8948.94
11405.8
7609.77
11994.1
8560.63
11181.2
7465.81
13398.9
9320.55
11565.6
7690.16
13706.7
9593.16
11549.5
7663.09
12306.3
11948.3
8728.56
7932.9
12450.4
12092
8601.3
7875.07
12404.7
11663.4
8409.39
7822.21
15016.1
18290.3
15383.3
11120
8130.84
16820.1
15278.6
16454.3
10962.2
7793.42
18647.5
15911.5
13598.6
11061.9
7315.12
11710.9
11703.8
7579.71
7666.08
11692.3
11530.1
7549.11
7610.44
11023.9
10626.3
7321.27
7067.33
16276.6
14814.2
14159.8
12940.9
14033.5
13579.9
10564.5
10411.1
7171.68
6699.39
16501.9
14456.6
14211.1
12173.4
12215.5
10783.9
9989.95
9114.57
6695.28
6475.23
14009.6
11072.3
14217.5
10723
16626.8
13433.2
17282.6
13799.8
11762.2
9074.61
11712.8
9579.87
14442.8
10613.6
14510.5
10616.3
17669.3
14409.3
17777
14550.9
11953.1
8786.28
11952.1
8795.29
9191.74
7324.29
6423.32
6225.37
9336.78
7780.58
6545.7
6445.61
9382.8
7174.55
6388.02
6285.29
9507.69
7022.49
6519.07
6194.17
12812.1
12542.3
15680.2
13445.2
12510.1
12264.5
15080.9
12875.8
11140.7
11229.7
13909.7
11957.2
13747.3
12849.9
11921.3
11282.1
12950.2
12773.2
10959.6
10501.5
12768.6
10804.4
12763.6
11638
10729.3
10074.6
10094.1
9879.54
9925.65
9336.33
12188.9
9644.22
5620.3
3188.05
1802.25
1034.63
5829.68
3285.95
1846.85
1049.13
5544.13
3143.05
1778.24
1022.82
5802.23
3267.73
1848.49
1053.58
5406.23
3055.38
1776.96
1031.22
5773.31
3217.48
1875.52
1075.51
5952.41
3230.85
1793.66
1020.62
5924.95
3183.34
1726.36
981.704
5268.65
2985.6
1757.99
1021.17
4375.09
2621.04
1597.43
950.309
4998.24
2889.94
1734.02
1013.03
4291.98
2616.08
1595.77
945.046
5441.1
3037.05
1740.6
1001.97
4409.5
2617
1576.45
940.771
5491.7
3036.28
1707.9
982.751
4380.77
2599.2
1553.52
927.631
5207.69
3012.61
1736.94
1013.05
4586.53
2766.09
1648.34
976.97
5102.31
2964.46
1717.07
1001.68
4518.68
2739.3
1634.72
971.721
4961.25
2888.23
1706.03
1001.86
4478.87
2706.38
1623.08
968.477
4630.97
2742.86
1653.52
1004.65
4357.37
2648.56
1618.19
950.706
4177.41
2596.63
1586.75
950.302
3760.16
2525.04
1403.62
398.759
2579.5
2377.3
1333.78
412.059
3779.01
2524.48
1409.17
412.638
2661.28
2378.39
1334.16
414.261
3821.99
2512.54
1396.29
398.56
2778.8
2369.35
1318.87
406.377
3780.25
2482.59
1410.31
417.91
2762.26
2341.6
1311.55
408.257
3591.98
2422.69
1426.02
461.749
2425.22
2275.67
1294.42
407.149
3256.01
2293.07
1347.23
421.528
1799.39
2116.21
1253.73
398.774
3371.76
2346.67
1379.55
433.864
1921.29
2183.51
1269.45
400.667
3179.38
2249.28
1300.59
382.825
1702.89
2067.68
1222.73
384.58
3159.09
2219.94
1275.26
371.361
1736.12
2035.96
1200.93
376.422
646.313
379.193
206.674
100.064
29.5766
635.387
376.377
205.966
99.863
29.5299
645.903
378.363
206.038
99.7397
29.4817
635.933
374.962
204.997
99.392
29.3941
654.305
377.989
205.281
99.3288
29.3605
639.249
373.091
203.776
98.8111
29.2282
623.237
368.205
201.632
97.899
28.9764
607.336
361.122
198.395
96.5189
28.5966
649
374.656
203.607
98.5871
29.1529
678.289
377.506
203.536
98.369
29.0774
667.584
378.757
204.926
99.0765
29.2822
693.431
380.575
204.66
98.8202
29.1996
632.748
369.794
201.585
97.7455
28.9223
670.072
373.332
201.706
97.6054
28.8685
621.504
363.512
198.61
96.4673
28.5698
661.722
368.012
199.124
96.4951
28.5626
670.394
383.549
207.549
100.277
29.6228
710.225
387.604
208.177
100.415
29.6517
672.015
383.148
207.132
100.053
29.5561
710.992
387.194
207.85
100.245
29.6012
679.244
382.814
206.445
99.6843
29.4474
714.469
386.417
207.185
99.9128
29.5046
694.127
383.13
205.829
99.3293
29.3417
719.497
384.909
206.288
99.4956
29.3855
709.329
382.585
205.344
99.0924
29.2732
15366.6
20510.8
15390.3
20453.6
15435.5
20313.1
15001.8
19885.6
13787.3
18666.3
12325.6
13906.4
12546.3
14766.7
12272
13644.7
12424.5
13732.8
12259.6
2078.68
447.176
101.706
18.2473
13199.7
3813.95
938.296
216.076
38.7548
12160.9
2036.77
436.579
99.1274
17.7569
13091.2
3752.91
922.512
211.85
37.7213
11907.6
1984.37
424.221
96.2334
17.2343
12843.8
3666.81
900.452
206.638
36.8036
11426.8
1879.46
400.338
90.8767
16.294
12380.7
3519.39
864.242
198.516
35.3797
10597.3
1704.31
363.029
82.7908
14.8949
11552.2
3289.65
811.15
187.061
33.4198
9210.35
1541.05
338.934
78.6069
14.2643
9416.83
2789.13
704.37
165.146
29.8132
9656.16
1587.42
344.8
79.4271
14.3598
10096.6
2984.53
747.139
173.734
31.1841
9007.12
1523.35
336.878
78.3692
14.2422
9136.44
2691.98
680.893
160.262
29.0311
8937.84
1506.7
333.198
77.5935
14.0952
9097.43
2663.8
672.59
158.778
28.7321
36131.9
52774.1
50899.7
34010.6
26008.8
31687.1
25011.9
31525.3
29855.8
48895
31875.1
50229.1
32.4165
39.7569
56.176
84.6422
130.42
201.326
38.2711
46.4432
64.5848
95.5772
144.015
216.334
28.2145
26.2052
35.5186
33.9561
52.0383
51.726
81.1422
83.9178
127.641
135.023
195.716
202.625
309.095
468.943
706.161
1056.76
1484.56
1796.22
320.67
465.395
657.528
892.002
1128.13
1283.28
86.1964
125.034
155.28
175.774
186.071
105.562
152.759
189.245
213.796
226.072
148.815
214.538
264.762
298.195
314.788
223.552
320.713
393.864
441.902
465.525
343.075
489.015
596.775
666.343
700.187
526.583
743.864
900.103
998.815
1046.28
101.651
147.179
182.437
206.203
218.101
123.146
177.803
219.772
247.841
261.818
170.784
245.5
302.114
339.522
357.999
251.86
360.023
440.615
493.083
518.753
377.82
536.287
651.925
725.908
761.738
564.261
793.694
956.765
1059
1108.06
75.0881
109.074
135.654
153.737
162.848
69.7715
101.425
126.236
143.151
151.686
94.3959
136.806
169.742
191.997
203.156
90.2811
130.932
162.566
183.982
194.735
138
199.287
246.358
277.834
293.501
137.226
198.295
245.284
276.754
292.434
214.574
308.44
379.513
426.409
449.537
221.985
319.247
392.979
441.667
465.685
336.268
480.43
587.554
657.038
690.915
355.805
508.504
622.009
695.601
731.449
513.002
727
882.127
980.609
1028
531.526
754.066
915.672
1018.23
1067.49
801.598
1117.59
1336.45
1471.11
1535.34
1200.82
1642.8
1933.42
2107.55
2191.54
1774.28
2361.8
2720.91
2932.96
3042.69
2580.53
3301.84
3699.28
3942.05
4097.68
3495.04
4257.66
4625.6
4884.31
5123.17
4134.53
4885.39
5210.89
5477.08
5786.63
829.962
1153.69
1376.15
1512.54
1577.66
1192.32
1632.24
1922
2095.84
2179.56
1662.45
2232.32
2588.51
2799.13
2904.52
2219.02
2911.89
3319.36
3561.14
3693.33
2759.65
3538.36
3969.87
4233.21
4397.13
3106.88
3927.97
4366.89
4642.93
4831.11
32.8348
41.1205
58.8195
89.1783
137.797
212.814
38.7475
47.9713
67.4609
100.292
151.184
226.509
28.6041
26.5905
36.8115
35.2587
54.6378
54.4357
85.8335
89.058
135.69
144.037
209.429
219.233
325.344
488.479
725.564
1070.06
1489.54
1796.93
333.831
480.402
672.118
903.314
1134.59
1285.26
87.3259
126.712
157.417
178.242
188.714
109.242
158.231
196.218
221.857
234.707
155.96
225.187
278.362
313.946
331.676
235.841
339.093
417.421
469.26
494.903
363.129
519.177
635.64
711.668
748.969
557.979
791.459
961.892
1071.28
1124.52
102.938
149.096
184.883
209.033
221.135
127.277
183.961
227.64
256.956
271.594
178.573
257.143
317.027
356.834
376.585
264.661
379.236
465.323
521.855
549.695
397.362
565.796
690.094
770.553
809.867
592.159
836.19
1012.18
1124.23
1178.61
76.1381
110.631
137.633
156.019
165.289
70.8094
102.963
128.188
145.401
154.092
97.8818
141.98
176.324
199.595
211.289
93.7914
136.138
169.183
191.616
202.902
145.018
209.728
259.669
293.228
309.994
144.539
209.167
259.136
292.765
309.582
227.268
327.392
403.758
454.526
479.705
235.891
340.003
419.525
472.446
498.707
358.13
513.26
629.795
706.244
743.84
380.312
545.367
669.515
751.007
791.083
550.394
783.487
955.211
1066.1
1120.15
576.734
822.181
1003.6
1120.92
1178.09
846.437
1186.54
1427.11
1578.46
1651.83
1255.76
1729.54
2050.04
2247.88
2345.18
1831.1
2456.07
2852.56
3095.62
3223.44
2623.9
3381.9
3818.83
4096.45
4273.98
3517.05
4306.76
4705.25
4992.65
5251.57
4140.36
4901.22
5238.24
5515.67
5833.57
866.381
1209.91
1450.38
1600.69
1673.48
1234.48
1698.73
2011.38
2203.41
2297.34
1704.53
2300.95
2683.26
2915.34
3033.12
2253.18
2970.59
3403.43
3666.88
3812.08
2780.57
3576.73
4027
4306.98
4481.36
3113.69
3941.11
4386.97
4669.31
4861.56
4599.78
2856.21
461.666
307.042
360.911
295.579
402.906
4047.74
3719.82
2232.23
2870.02
1132.2
1658.56
876.252
1013.29
791.25
3797.71
1832.74
1003.78
861.893
1201.79
1003.84
717.672
648.942
580.405
484.349
746.23
652.684
4170.14
2331.02
2712.98
1561.12
1200.38
1856.78
731.871
505.71
833.36
8984.91
8357.7
7814.18
8014.06
12073.6
6063.42
6421.6
6450.33
6698.1
7413.93
1191.91
1652
1968.39
2165.06
2261.29
801.833
1130.33
1365.97
1515.33
1587.68
943.316
1331.14
1609.36
1785.06
1869.63
774.318
1096.61
1330.36
1479.32
1551.37
1048.32
1469.37
1766.41
1952.41
2042.09
8520.23
8745.58
8488.02
8691.19
12563.9
8004.03
8388.17
8298.96
8499.94
9449.54
5094.91
5966.56
6340.99
6641.72
7034.2
6556.13
7329.43
7419.42
7594.49
7851.68
2800.28
3650.75
4147.94
4440.49
4597.97
3946.63
4880.66
5352.18
5638.49
5831.92
2215.02
2975.6
3453.55
3735.02
3873.08
2540.03
3370.87
3874.28
4165.67
4310.13
2015.49
2736.51
3201.02
3475.59
3607.1
7958.54
8161.89
7948.15
8193.23
12040.2
4265.85
5131.46
5551.5
5874.07
6245.47
2503.45
3302.06
3785.53
4076.97
4236.54
2165.79
2887.94
3339.58
3615.49
3764.03
2932.48
3757.94
4230.8
4534.31
4742.79
2487.91
3254.32
3713.27
4000.89
4173
1813.81
2438.57
2838.38
3085.01
3215.23
1658.27
2263.52
2663.05
2907.26
3028.78
1498.96
2077.02
2471.08
2711.59
2826.49
1256.51
1753.08
2098.5
2312.39
2415
1901.58
2584.63
3028.68
3295.59
3426.82
1670.94
2286.86
2695.49
2944.35
3066.73
8384.15
8120.29
7713.89
7941.57
11897.6
5122.59
5699.14
5897.28
6185.1
6749.5
6121.86
6806.67
6890.46
7211.26
8404.47
3676.09
4488.69
4900.02
5207.95
5507.9
2920.23
3724.13
4178.14
4477.29
4688.38
4299.29
5138.27
5539.39
5870.02
6275.7
1852.72
2496.26
2909.47
3163.28
3295.69
1306.02
1810.52
2156.71
2370.73
2474.65
2095.02
2795.29
3234.54
3504.57
3650.59
4954.1
4795.95
4498.09
3979.79
3069.91
1245.69
20965.8
21238.8
23566.5
24495
20187
21124.6
22256.4
21239
17595.4
23183.2
18157
23612
20764.5
18572.7
30364.2
19897.5
20004.6
21965
22600.2
18801.8
19736.1
21028.4
20294.7
17391
28015.6
17841.4
27533.6
20880.6
22980.2
32542.4
18588.8
18548.1
19849.2
20187.2
17621
19056.4
19318.1
19176.7
19781.5
24231.3
20526.3
24052.8
22557.3
25346.8
28734.7
17263.8
17247.2
17742.5
17888.5
16724.2
18403.8
17411.7
17592.8
18090.6
20673
18787.1
19929.9
20072.6
22082.4
24047.9
15937.5
15958.9
16185.9
16232.2
16004.3
17800.3
16018.6
16388.8
16728
16428.1
17441.6
15539.3
17897.9
17728.3
19055.5
15270.2
15346.1
15101.6
15107.6
15290.2
16663
15079.1
15357.9
15636.1
13607.7
16101
13135.8
16209.5
14876.8
16685
22467.5
21428
24087.9
25523.8
20408.6
20137.4
22126.8
20834
19206.2
13621.5
19075
13675.2
16775.5
15025.7
17709.6
20840.7
20077.9
21897.1
22861.6
19412.9
19341.3
20560.1
19471.1
17310.7
12728.7
17220.6
12815.3
14889.5
13071.9
15810.4
18603.8
18134.2
19171.6
19669.5
17712.5
17648.1
18458.8
17749.9
15773.1
11900.7
15478
11665.6
13663.8
11399.6
14837.8
16229.1
15944.4
16816.2
17068.2
15636.8
15498.6
16512
15926
13986.7
11410.1
13809.1
11174.8
12333.2
10861.9
14144.9
14702.6
14502.7
15299
15444.5
14101.4
13965
15168.7
14745.7
12993.1
11597.4
12863.5
11474.1
11756.9
10844.4
13834.3
13587.6
13410.4
14317.1
14423
13125.6
13222.9
14176.2
13942.5
12402.3
11691.5
12344.3
11644.6
11411.4
10982.4
13919.5
12824.9
7281.73
20955.6
13845.9
22986.2
17065.8
35700.7
44782.8
47131.9
58200.4
30679.5
26767.4
19431.4
15546.4
9522.36
6351.96
21380.4
21416.6
18618.6
21629.5
28846.4
25230.4
33796
26808.9
8871.01
6253.88
4966.62
3740.58
10648
8642.16
6589.18
5445.03
20345
20704
20354
16505.7
15356.7
12418.8
12346.1
14164
19827.9
19884.6
42369.4
43995.5
29449.6
30545.4
17547.7
14806.9
18692.2
13238.9
8705.48
9063.28
7351.02
11207.2
3836.92
4889.88
10197.1
15056.3
6174.17
7483.34
11050.6
20116.5
7768.33
13331.8
2915.8
7843.46
2434.08
5824.46
18643.3
23219.1
19679.9
23388.2
22584.8
22635.4
23441.3
22615.7
17080.6
23410.5
17167.2
22935
19587.7
23388.8
19699
23427.9
23904.9
22493.9
23967.5
22368.1
15921
23617.2
15455.7
23772.7
20360.4
24829.1
25700.3
37242.2
21611.4
29143.1
25506.2
41033.3
19294.2
21651.5
25778.3
35542.8
19119.7
20192.5
26076.1
35200
6860.41
9284
17776.6
32305.9
8431.42
9807.97
22717.1
36238.4
10157.5
10331.6
28116.4
39159.2
26021.7
26763.1
23108.1
23374.5
36286.6
26637.1
26045.1
23404.9
21058.4
42243
24417.5
24887
23108.8
24425.4
47164.6
2503.47
3067.23
5547.46
13758.3
3558.12
4144.19
7545.03
15018.1
5111.32
4357.75
9905.7
16463.9
25661.1
24137.6
23845.8
22228.8
21620.3
18609.1
16878.6
14363.7
12659.2
18605
23707
21910.4
24679.3
23329.3
22330.8
20182.7
19374
16967.2
13316
18313
24918.1
27733
24995.1
28651.9
23401.1
23782.3
23020.1
24251.5
23486.1
23735.2
23252
22951
24867.3
28869.9
24831.5
28934.7
22447.1
24706.8
22334.6
24735.3
23580.2
23681
23629.7
23714.6
20394.7
19324.5
13359.5
15144.2
20317.6
18901.6
13213.4
15457.6
20631.1
19212
13627.1
15093.1
20721.2
19011.2
14049
15064.5
1902.52
1144.94
722.681
1034.08
605.332
544.673
2740.47
1394.24
955.254
1977.85
1439.28
1130.18
2942.86
2055.07
1895.7
3387.31
2497.86
2105.34
21372.9
17555
15149.6
20226
17158.3
15058.6
14878.8
12600.4
11323.4
10714
8278.26
7191.4
5231.16
3376.5
2646.91
19719.3
16525.6
14246.1
20987.4
17276.2
14762.2
16147.6
12361.5
10307.5
10932.3
7678.75
6323.37
5512.73
3313.45
2440.46
28558.6
27477.9
31522.3
27811.2
32600.9
27873.2
39960.4
29771.2
21388.7
21255.6
21222
19385.8
24265.7
22275.5
24043.3
20087.1
23804.2
23306.9
21872.1
23042.8
28268.9
25795
29599.3
30242.4
32691
34036.1
24307.5
25411.2
21782.6
21243.5
26038.6
26853
16182.6
8638
15272.5
9566.13
16471.3
8702.41
15284.3
9493.03
16323.3
8732.3
15343.7
9903.37
15023.2
10366.8
15256.3
10254
21485.1
17894.1
21687.4
18068.1
24106.9
21395.2
24730.1
21418.9
20906.3
14693.8
21490.7
14340.9
22401.3
18098.9
22795.6
17926
25642.4
21391.1
25791.8
21175.3
20900.4
14820.7
20922.5
14737.3
13345.9
8730.13
11357.7
7360.58
12255.1
7782
10806.6
6863.97
13779.1
9286.56
11593
7589.7
13833.4
9594.81
11562.4
7632.37
2488.49
1275.3
4600.58
2596.33
2645.81
1547.08
4891.83
3053.84
3215.92
2287.87
5381.34
3883.87
12468.5
19919
8883.72
8472.1
6149.16
19203.8
12931.4
7358.31
7393.54
5045.16
20396.3
15624
12132.3
9282.32
5993.79
661.878
433.536
1590.93
1186.13
906.607
558.393
2101.97
1625.14
1524.78
1031.27
2897.3
2279.15
18992.9
17410.3
12367.4
11082.4
7731.13
7169.94
6428.56
5323.91
4240.01
3327.52
18126.6
15633.8
13555.8
11095.5
10210.4
8299.39
7614.61
6190.47
5174.09
4609.07
14234.3
10676.2
14513.3
10651
17734.2
14024.8
17939
14154.6
11699.6
8696.04
11216.6
8543.34
14636.7
10616.7
14572.7
10623.5
17997.8
14599.1
17874.8
14607.6
11992.4
8660.54
11975.4
8770.3
8869.24
6787.9
6073.62
5720.05
8458.81
6516.32
5787.57
5343.04
9283.22
6971.61
6240.72
6044.32
9484.5
6969.89
6473.33
6123.83
978.16
813.941
647.939
4219.53
2136.45
1676.15
977.981
916.512
782.007
4706.63
2599.78
2116.06
1406.82
1482.33
1451.39
5381.85
3338.69
2842.7
15028.1
12769.4
11375.4
9622.81
8422.62
7750.72
6563.22
5838.92
5496.63
5200.28
4565.6
4206.9
6344.43
4225.83
3625.91
13084.1
10808.2
9418.46
9046.41
7475.03
6625.79
6965.52
5733.56
5100.92
6169.12
4921.96
4260
7898.18
4815.42
4054.06
4552.46
2542.04
1467.17
862.338
5099.6
2751.96
1545.77
889.388
4578.25
2545.15
1472.45
867.07
5206.76
2813.02
1589.25
914.564
4580.37
2530.86
1504.56
891.583
5318.49
2854.07
1657.68
955.814
5707.64
3008.47
1653.58
941.52
5846.4
3107.03
1679.05
954.407
4865.29
2694.34
1580.35
919.636
4090.58
2408.92
1467.42
873.534
4309.33
2459.26
1493.16
882.847
3800.18
2281.79
1414.88
847.859
5233.86
2867.91
1632.07
938.406
4262.66
2499.19
1497.59
890.866
5429.48
2980.4
1671.15
960.81
4335.25
2561.04
1526.94
910.564
3483.84
2198.63
1352.34
823.14
2416.45
1803.5
1213.03
770.266
3503.36
2195
1355.59
824.639
2518.48
1831.75
1222.5
775.437
3600.79
2206
1379.47
840.567
2805.12
1915.34
1255.65
793.65
3590.36
2172.66
1372.06
862.342
3060.66
1979.65
1303.52
805.053
3412.46
2131.33
1355.03
835.941
1462.28
1498.97
989.154
298.67
528.041
1337.89
905.321
297.854
1644.28
1560.73
1014.64
314.246
724.523
1404.79
927.13
304.825
1995.43
1671.48
1049.21
314.617
1074.64
1518.65
956.93
309.12
2445.29
1809.3
1109.99
341.47
1480.95
1651.81
1003.01
323.451
2783.03
1943.32
1186.55
391.579
1672.57
1764.06
1047.1
336.389
3019.58
2100.32
1219.53
379.247
1628.26
1907.04
1130.43
359.732
2926.55
2032.64
1197.05
377.954
1549.09
1842.67
1088.34
346.417
3064.99
2145.29
1225.81
357.686
1632.81
1957.18
1152.83
361.784
3126.06
2187.02
1250.82
363.017
1719.03
2001.88
1178.61
369.038
549.421
330.57
183.92
90.3496
26.9089
546.845
330.342
184.139
90.4978
26.954
557.33
334.323
185.404
90.9198
27.0581
558.728
335.099
186.073
91.2605
27.1559
573.942
339.226
187.186
91.5956
27.2349
574.126
340.139
188.15
92.0934
27.3783
579.081
345.472
190.78
93.2173
27.6853
591.166
352.573
194.283
94.7387
28.1049
590.069
344.949
189.653
92.6045
27.5063
623.594
351.196
191.301
93.1347
27.6371
592.429
343.317
188.495
92.0628
27.3546
622.53
348.791
190.028
92.5829
27.4854
594.19
349.551
191.977
93.6079
27.7815
634.892
355.627
193.383
94.0282
27.8825
608.198
356.512
195.261
95.0195
28.17
649.65
361.851
196.207
95.2363
28.2151
560.112
331.775
183.833
90.2235
26.8676
582.23
333.353
183.834
90.1504
26.8427
567.902
334.792
184.971
90.6499
26.978
588.84
335.709
184.723
90.4836
26.9288
583.346
339.53
186.646
91.2775
27.1411
602.458
339.782
186.207
91.0451
27.0749
605.311
344.627
188.291
91.8812
27.2976
618.579
344.089
187.844
91.6797
27.2418
625.257
347.216
189.197
92.2275
27.3881
13821.2
21610.1
14299.4
21758.5
14828.9
21733.5
14955
21444.1
13883.4
20046.8
12263.4
13930
12474
14975.7
12230.7
13628.8
12410.6
13724.3
12487.7
2143.75
462.482
104.99
18.787
13931.2
3991.6
978.121
224.439
40.1309
12467.3
2119.33
455.374
103.135
18.4196
13881.9
3940.3
963.912
220.432
39.1169
12310.4
2069.07
442.131
99.9351
17.8376
13675.7
3855.1
940.584
214.763
38.1087
11865
1956.84
415.712
93.9807
16.7952
13175
3692.02
900
205.634
36.5123
10920.6
1757.66
373.619
84.9561
15.2478
12161.7
3422.15
838.819
192.607
34.3046
9246.84
1550.72
341.63
79.2765
14.3848
9476.39
2816
712.064
166.976
30.1326
9774.91
1612.11
350.562
80.7121
14.5783
10304
3052.53
763.603
177.271
31.767
9013.52
1526.45
337.963
78.6713