/*--------------------------------*- C++ -*----------------------------------*\
  =========                 |
  \\      /  F ield         | OpenFOAM: The Open Source CFD Toolbox
   \\    /   O peration     | Website:  https://openfoam.org
    \\  /    A nd           | Version:  11
     \\/     M anipulation  |
\*---------------------------------------------------------------------------*/
FoamFile
{
    format      ascii;
    class       volScalarField;
    location    "1";
    object      gradTx;
}
// * * * * * * * * * * * * * * * * * * * * * * * * * * * * * * * * * * * * * //

dimensions      [0 -1 0 1 0 0 0];

internalField   nonuniform List<scalar> 
5712
(
-7630.9
-9757.9
-17936.7
-26349.3
-26966.1
-46424.2
-20553.4
-52155.7
-16616.8
-36472.4
-24850.3
-37885.3
-22178.2
-29286.3
-9793.87
-11253.9
-17422.4
-20016.2
-22220
-22069
-17347
-21280.8
-25410.7
-22738.4
-6330.83
-4886.75
-7849.63
-5393.58
-14761.4
-12059.1
-24989.8
-18390.2
-19285
-20166
-21751.9
-21223.9
-8024.72
-6084.37
-45086.8
-60384.2
-29289.2
-35920.5
-59924.7
-77915.1
-31095.6
-35630.1
-33783.2
-47717.3
-29699.4
-39245.1
-17582
-28135.9
-3503.32
-1194.05
-3663.24
-1333.08
-10539.3
-4298.74
-14283.8
-5316.62
-10421.8
-3963.19
-10749.4
-3477.33
-18143.3
-5820.4
-23381.6
-7953.17
-27356.3
-13832.6
-25088.3
-14855.1
-25196.2
-16330.6
-22231.4
-16460.1
-20165.9
-12068.9
-20268.8
-10574.4
-25945
-16372.3
-26044
-16473.8
-23539.9
-17303.9
-23838.8
-17313
-21750.5
-13764.6
-22530.8
-14066.3
-20814.3
-9230
-9873.13
-12305
-20861.8
-10155.6
-8771.56
-12684.9
-22024.3
-9124.82
-11068
-12272.7
-23134.7
-9326.69
-11976.4
-12755.5
-4523.79
-4970.53
-1552.65
-3196.28
-13071.3
-13863.1
-5231.08
-9696.72
-16748.4
-18373.9
-8579.84
-14789
-12220.5
-199.757
-14726.2
-19122.7
-10923.4
188.419
-6791.35
-13664.6
-22553.7
-17253.9
-11261.9
-14086.1
-12894
-11636.3
-18512.5
-4183.43
-3320.86
-2441.14
-2388.16
-11617.5
-9371.48
-7354.89
-6901.87
-14277
-11360.7
-9597.91
-8457.02
-5437.76
-7157.74
-11649.7
-12308
-15260.9
-13743.8
-17371
-14683.4
-12846.3
-10811.6
-9480.3
-9318.67
-12719.9
-9065.71
-11966.1
-7797.29
-10732.5
-6641.9
-13256.8
-8336.97
-10713.6
-3857.82
-9475.74
-9574.72
-13032.7
-16184.2
-14446.2
-20399.2
-7773.39
-7957.7
-9675.08
-1792.01
-8546.41
-15747.5
-8148.22
-17065.1
-14353.7
-25335.5
-14604.9
-27092.2
-6747.07
-13935.1
-6223.86
-15032.4
-9487.8
-6552.36
-13571
-4919.41
-9343.49
-539.002
-11620.7
353.496
-9261.95
-10291.6
-14280.4
-6360.06
-7793.33
-12290.6
-12773.5
-8445.86
-2475.34
-2073.72
-1686.89
-1809.41
-1581.03
-1316.16
-7155.86
-5325.84
-4219.25
-4839.02
-3497.51
-2775.96
-8244.56
-6484.92
-5705.63
-5737.1
-4168
-3710.04
-5842.62
-4591.03
-4266.84
-10313.9
-6855.46
-5349.46
-10378.4
-6714.5
-4943.52
-10766.6
-7580.43
-6166.33
-7631.99
-4456.53
-3176.03
-14740.9
-11449.8
-9049.01
-10077.2
-7516.96
-5535.55
-9623.42
-6621.6
-4589.94
-8637.8
-5525.71
-3638.34
-9787.15
-5006.66
-2416.7
-11216.8
-14977.6
-9057.41
-11477.1
-12578.8
-18170.4
-11405.2
-16223
-9.84673
-698.584
507.189
-150.229
-3050.59
-3308.01
-1378.91
-783.089
-943.791
-2610.71
-9856.31
-14122.4
-6652.84
-3932.72
-10801.8
-10734.2
-17085.3
-18833.8
502.252
4305.51
-8031.22
-7502.12
-7480.15
-5730.65
-1027.53
-534.066
-749.105
-353.747
-2028.86
-172.601
166.061
690.182
-9299.22
-2211.66
-6522.36
-1673.75
-9302.18
-2764.95
-11164
-3418.93
-9639.05
-12265
-8810.28
-11895.6
-15777.9
-16135.1
-14949
-15173.7
-5825
-9102.09
-6775.58
-9083.26
-9274.49
-11416
-10140.2
-11454.1
-15539.1
-14843.7
-16216.5
-14830.3
-5827.97
-8762.66
-6259.88
-8842.91
321.83
-891.473
-6597.55
-3478.74
777.836
-529.663
-6114.31
-3050.7
-94.1037
-1141.84
-6705.68
-3792.22
-452.843
-1341.48
-6663.7
-3869.5
646.999
733.462
-141.416
34.2359
2730.29
2679.34
255.519
471.801
612.801
1823.83
-1287.42
-597.765
9932.04
10022.1
5223.39
4008.49
628.956
10853
10451.1
3914.3
5724.74
1022.17
-11004.6
-8307.98
-6831.21
-5871.4
-2980.96
667.707
550.749
86.3302
42.5597
2152.76
1870.13
289.813
159.137
2195.16
2364.96
-255.885
-343.048
4959.74
1830.11
7451.9
4136.39
3106.4
2054.43
3503.78
2730.87
41.4396
-538.384
-4043.57
-2492.6
-1285.05
663.096
-958.331
564.805
-1213.67
-78.218
-1109.1
-1153.11
-5122.12
-4474.5
-9623.15
-5703.02
-8306.42
-7951.94
-12514.5
-9879.45
-7041.92
-3964
-3475.66
-3257.51
-11324.6
-4941.67
-12400.3
-5516.24
-13938.2
-10108
-14835.4
-10881.8
-8574.89
-3217.83
-9557.91
-3714.44
-4885.03
-3494.82
-2957.61
-4214.63
-3022.09
-3145.79
-2466.93
-3885.5
-5679.22
-3384.34
-3347.73
-4847.48
-6988.18
-3657.37
-4436.2
-4966.6
472.973
447.325
479.125
45.5799
158.171
167.832
1721.71
1640.32
1559.94
200.862
455.285
435.094
2285.87
2257.03
2173.63
-227.402
455.226
572.023
760.228
623.416
334.4
2529.91
2449.56
2175.18
1957.67
2061.45
1950.7
2451.82
2371.32
2195.32
-665.746
202.616
259.477
-3584.45
-2031.26
-1126.5
349.365
1095.28
1465.72
425.291
1275.29
1610.05
205.746
1055.57
1272.07
-1265.49
257.75
425.719
16.497
15.817
14.8724
21.496
185.044
83.8259
57.8102
43.965
-0.874341
25.2114
72.4862
92.4292
287.448
142.859
147.846
124.274
-172.27
-14.8072
106.39
173.654
64.6149
88.699
107.703
103.463
-26.3485
43.4928
34.9558
30.5185
-187.761
-32.3871
40.4818
63.3518
-703.576
-172.372
-16.3104
66.872
-1025.31
-253.222
-72.945
135.974
-471.302
-89.7102
40.8689
136.889
-834.483
-194.696
-78.783
109.996
-752.917
-195.33
8.33736
106.672
-1150.04
-296.315
-78.6283
165.602
-820.981
-232.909
12.7104
137.168
-1230.55
-330.362
-90.4101
171.551
9.84005
9.45168
14.4909
28.9698
37.018
18.9044
6.01681
25.6094
64.8455
38.4849
54.4593
84.1454
145.552
66.4157
25.2686
71.357
-272.176
-56.4664
40.0429
134.17
-95.4641
5.21766
19.2682
122.768
-24.6181
55.389
84.8029
144.116
26.1041
52.1949
12.8705
122.579
-701.266
-151.631
-55.5499
165.239
66.6648
28.5777
13.9214
22.15
115.342
43.04
17.9972
11.9392
143.27
67.3892
24.8665
53.685
299.417
114.753
43.3972
29.7051
106.06
72.5662
29.4397
85.638
393.252
161.33
64.1786
45.5012
-16.9342
61.7339
34.168
119.537
338.71
172.891
72.8324
55.2745
-325.192
-5.05435
-17.5819
101.736
149.009
144.313
58.0455
52.002
-799.364
-113.396
-44.8136
109.859
-239.09
16.4856
19.9967
38.5286
-594.702
-49.2454
-34.2293
101.208
-105.051
73.6548
40.0795
47.1029
-973.215
-178.886
-62.2964
119.267
-346.645
-31.9619
5.57094
33.7219
-1092
-234.427
-81.7216
114.936
-431.566
-74.8923
-10.2376
27.4517
9.40217
3.3947
1.32928
0.570567
0.310187
12.4644
5.00215
2.09061
0.926509
0.511115
22.4565
7.78409
3.02269
1.29718
0.705869
27.0904
10.8728
4.56526
2.03348
1.12573
29.6323
9.66387
3.69748
1.58262
0.861243
35.2997
14.1282
5.94337
2.65564
1.47348
17.442
6.96858
2.93709
1.31962
0.735898
12.8896
4.22375
1.61056
0.694774
0.381901
27.9826
9.52714
3.72885
1.61807
0.887133
13.3804
3.97457
1.46843
0.623274
0.338731
30.4513
11.0155
4.4886
1.97987
1.0918
12.9787
3.99886
1.51644
0.649045
0.353556
21.518
6.29531
2.28381
0.962006
0.522304
12.65
3.49113
1.25779
0.531617
0.289476
19.6375
4.4109
1.30193
0.490535
0.253733
10.8732
2.13406
0.581025
0.210613
0.107239
8.02688
2.67024
1.01236
0.427805
0.230758
6.10095
2.1608
0.848521
0.363541
0.196958
19.9218
6.60127
2.54156
1.08628
0.589628
15.9107
5.59966
2.22253
0.960151
0.522838
27.4537
8.13382
3.01669
1.27394
0.689148
21.4105
7.54771
3.03562
1.32342
0.724763
24.421
8.67879
3.54296
1.55914
0.857453
14.5903
5.59728
2.32782
1.02922
0.567126
12.2925
4.6206
1.9288
0.854801
0.471257
-138.021
-344.522
-175.257
-798.071
138.735
-909.867
941.879
-493.47
1692.8
714.762
-385.512
-1044.94
1170.75
1045.72
-1124.73
-1977.33
-1599.13
-2377.86
-866.572
-206.927
-47.6204
-10.7491
-2.76792
-219.461
-121.538
-16.5683
-4.72615
-2.22258
-2658.41
-631.001
-145.718
-32.7339
-8.44314
-500.77
-151.741
-39.6426
-8.68909
-2.49707
-4425.79
-1052.49
-243.875
-55.0134
-14.172
-830.948
-266.433
-68.4358
-16.6739
-4.38729
-5848.91
-1395.46
-325.055
-73.6521
-19.026
-972.882
-337.949
-89.3869
-21.954
-5.74915
-7172.6
-1729.37
-406.206
-92.6568
-24.082
-1092.69
-417.128
-113.076
-28.0357
-7.41776
-8222.25
-2044.89
-488.202
-112.67
-29.533
-1911.35
-609.571
-155.601
-36.9705
-9.63148
-7761.31
-1924.57
-457.032
-104.887
-27.3557
-1386.64
-500.924
-133.206
-32.4636
-8.48956
-8405.57
-2092.18
-500.674
-115.841
-30.4496
-2226.87
-679.424
-170.16
-39.7698
-10.319
-8726.73
-2153.1
-516.027
-119.395
-31.3868
-2338.62
-712.979
-179.763
-39.0985
-10.7021
-645.415
-7933.96
-7248.17
-2582.1
1759.68
2977.38
8248.16
12130.6
1670.78
8806.2
-2276.5
2320.99
2449.53
5172.91
10064.4
14386.1
15238.8
19242.4
6227.34
8093.01
-20047.8
-14148.2
-3436.87
-2326.44
-1628.6
-2215.03
-2330.12
-11850.2
-10183.4
-9025.1
-8875.59
-6720.66
-4916.67
-6867.36
-4033.8
-3414.5
-3956.89
-2708.21
-19401.5
-9311.63
-2769.16
-4898.73
-7335.58
-4872.55
-4998.02
-3586.76
-1958.1
-2718.76
-3162.03
-3469.5
-19591.5
-12403.2
-11590.4
-8106.79
-7631.73
-8408.35
-2967.74
-3687.39
-5292.18
-13484.9
-10876.4
-8320.81
-6789.84
-5075.59
-8923.74
-5893.41
-4237.66
-2919.29
-1339.47
-2980.2
-2416.91
-1768.24
-1079.13
-364.489
-2050.39
-1688.78
-1249.04
-765.129
-257.776
-1428.25
-1168.74
-858.187
-522.379
-175.301
-1958.99
-1618.33
-1198.82
-734.263
-247.101
-2038.9
-1665.64
-1222.61
-744.956
-250.373
-7244.57
-5170.8
-3685.15
-2987.01
-2787.07
-5286.72
-3619.78
-2345
-1746.57
-1120.77
-5573.06
-3338.59
-2201.69
-1402.93
-612.351
-4438.22
-2842.01
-1764.58
-1158.45
-616.27
-3078.64
-1852.13
-1089.8
-680.875
-304.529
-3814.3
-2779.91
-1864.98
-1082.28
-363.931
-4644.25
-2986.11
-1912.26
-1104.42
-393.143
-2621.94
-1579.05
-941.508
-503.085
-165.58
-2764.12
-2087.15
-1433.51
-837.975
-278.356
-3103.23
-2269.21
-1512.09
-862.45
-282.401
-2218.87
-1692.3
-1168.76
-682.85
-225.418
-12258.3
-8773.07
-6477.38
-5066.74
-4161.08
-6663.8
-4675.01
-3248.01
-2056.28
-852.86
-2258.63
-1723.95
-1200.36
-712.588
-240.828
-4057.56
-3153.3
-2237.21
-1350.89
-463.256
-5859
-4449.41
-3138.8
-1927.09
-697.661
-4050.17
-3166.79
-2265.83
-1381
-477.139
-4227.03
-3355.29
-2423.53
-1478.68
-505.966
-3060.84
-2442.1
-1763.18
-1068.62
-361.07
-1661.85
-1312.92
-934.495
-557.121
-185.432
-2358.06
-1907.54
-1387.46
-839.999
-281.563
-2641.76
-2058.34
-1452.35
-864.589
-289.362
-2949.35
-2341.59
-1681.27
-1013.78
-341.413
-12936.6
-10005.4
-7622.03
-5984.8
-4491.14
-8339.17
-5745.93
-4126.72
-2782.26
-1277.34
-8215.19
-6202.46
-4392.69
-2950.49
-1306.49
-6186.94
-4520.24
-3219.92
-2050.43
-786.507
-6193.17
-4781.26
-3419.46
-2117.82
-763.268
-6367.43
-4626.23
-3277.02
-2077.44
-786.34
-2486.45
-1952.17
-1395.74
-845.709
-288.671
-3196.38
-2586.98
-1885.63
-1145.43
-385.147
-4456.97
-3518
-2526.59
-1534.29
-523.019
-6577.31
-13509.5
-13830.4
-38400.9
-13412.2
-50602.7
-7408.59
-18082.1
-13423.9
-10284.9
-22667.8
-18756.5
-13132.4
-12079.2
-25063.4
-19524.8
-4881.77
-3665.5
-9580.84
-6674.05
-10910
-8255.34
-29676
-22172.9
-17809.9
-13309.5
-18428.3
-10897.4
-1283.33
-4475.78
-47218.4
-61303.7
-28370.6
-35806.5
-61597.6
-78650.9
-30036
-35385.8
-35530.4
-48631.2
-28890.1
-39264.5
-19612.4
-29138.9
-2397.27
-641.764
-4254.98
-1460
-8151.67
-3706.94
-16628.2
-6051.43
-3538.73
-2054.47
-8842.58
-2808.92
-18273
-5782.37
-23658.5
-8031.13
-18409
-9766.18
-21627.4
-12816.6
-16276.6
-11818.7
-18723.6
-14321.7
-17733.1
-10435.6
-13906.1
-7418.17
-24641.1
-15472
-25727.5
-16231.1
-22150.1
-16375.1
-23467.8
-17062.9
-20903.3
-13029.7
-22343.9
-13866.4
-19777.9
-8938.58
-8805.62
-11921.8
-17645.4
-9209.75
-6743.24
-11916.2
-21837.4
-9083.84
-10587
-12102.8
-23150.2
-9338.12
-11847.4
-12710.5
-1374.57
-1283.48
-357.998
-1645.15
-5597.21
-5919.68
-3637.82
-7476.38
-3375.87
-4196.77
-5814.69
-11111.5
-12605.5
-9390.6
-10500.5
-13579.1
-9455.86
-7206.68
-8165.47
-8112.98
-15874.5
-15002.9
-12869.8
-11373.4
-8431.71
-7599.81
-16542.6
-1406.52
-1045.92
-819.379
-923.828
-5264.55
-4114.03
-4609.81
-4072.22
-1014.08
322.349
-5517.82
-4354.57
-9923.12
-10548.8
-9393.62
-8698.78
-7805.74
-5673.13
-10459.8
-8243.4
-10267.6
-8031.88
-11882.9
-11569.4
-10533.4
-7582.32
-8135.84
-4991.67
-7531.79
-4345.7
-11918.7
-6986.25
-9586.31
-4390.72
-8693.49
-9489.01
-13242.1
-17181.7
-14059.6
-20344.3
-6952.52
-7828.41
-8250.28
-2173.59
-8159.12
-15589.8
-8032.32
-16999.1
-14055.7
-25321.9
-14502.1
-27039.2
-6360.98
-13800
-6112.4
-14981.6
-8969.44
-6558.71
-13458.3
-5078.99
-8392.9
-1163.21
-11528.6
-692.698
-9025.03
-10235.7
-14228.4
-6387.72
-7718.56
-12265.5
-12754.9
-8446.11
-999.122
-919.236
-738.128
-847.48
-3120.63
-2299.82
-2946.49
-2693.28
935.469
310.425
-3429.59
-3723.24
-10310.8
-9476.29
-7849.38
-6457.73
-4543.63
-3654.99
-6516.81
-5271.4
-6783.29
-4874.37
-17769.6
-14853.8
-8228.23
-6450.54
-6726.37
-4597.27
-5917.84
-3360.55
-6724.61
-2522.4
-5668.59
-9312.48
-4846.68
-9648.43
-8997.29
-11016.7
-10217.8
-13897
-909.374
-581.302
-570.871
-430.439
-3485.81
-2261.07
-2652.8
-1185.46
-918.822
-1372.32
-8181.82
-8676.99
-4236.23
-3668.05
-9801.56
-10420.9
-15866.8
-18457.2
660.572
4305.68
-7253.47
-7247.72
-7028.89
-5612.58
-913.091
-782.421
-953.904
-751.975
-1413.62
-760.002
-216.821
-100.779
-7523.18
-3020.49
-6358.67
-2457.79
-9013.54
-3186.12
-11032.6
-3574.07
-5296.38
-10191.7
-7121.99
-10733.3
-9086.98
-12280.2
-12261.3
-13344.7
-4959.62
-8614.37
-4358.96
-8518.15
-8472.81
-10882.1
-9890.99
-11304.8
-14355.8
-14045.8
-15870.6
-14612.8
-5416.28
-8518.03
-6126.11
-8773.24
147.157
-1318.56
-6706.58
-3830.37
177.692
-1337.08
-6601.67
-3639.33
-202.664
-1424.82
-6735.21
-3991.08
-490.782
-1450.69
-6667.56
-3934.97
-907.663
-964.131
-797.943
-811.776
-1712.76
-1699.61
-970.714
-981.826
-7551.56
-6719.15
-2942.06
-2800.1
-3175.61
-4580.23
-3498.48
366.533
-947.343
-679.058
-985.429
-3461.24
2764.56
-148.465
-14572
-11721.4
-9798.55
-7777.71
-4077.15
-938.198
-799.46
-872.766
-1004.63
-1644.82
-1262.63
-1240.62
-1602.04
-6737.64
-6324.96
-3012.88
-3690.58
-4626.87
-6349.51
-2668.26
-4580.81
-4261.66
-4561.62
-569.891
-984.587
-1647.93
-2529.4
-9547.83
-7534.25
-7094.64
-4979.25
-5669.4
-3892.04
-4451.85
-3029.36
-2590.52
-2693.7
-7556.69
-7267.06
-10384.4
-6591.96
-10126.2
-10541
-12813.6
-10609.5
-8025.21
-4793.94
-5740.44
-5563.9
-11512.3
-5427.84
-12425.7
-5616.42
-13870
-10494.5
-14785.9
-10941.3
-8943.78
-3690.23
-9644.57
-3826.2
-5805.24
-4186.64
-3718.21
-4915.78
-4836.98
-4871.45
-3667.94
-5150.78
-6107.25
-3805.05
-3748.6
-5264.95
-7109.68
-3778.44
-4558.95
-5079.27
-600.939
-527.177
-718.979
-566.31
-1116.5
-1342.16
-1017.92
-832.293
-5962.33
-5208.62
-2390.53
-1115.99
-7368.41
-6780.59
-5502.4
-4786.26
-4312.92
-3664.1
-1371.6
-1458.71
-2401.98
-1170.19
-8150.26
-6715.49
-4419.57
-3513.55
-3216.93
-2232.12
-2100.76
-1158.34
-2453.81
-94.9542
-129.745
-52.8886
-18.141
6.01245
-84.8506
-48.2196
-4.12712
14.6021
-360.527
-142.649
2.51418
63.5253
-252.859
-129.624
24.4014
66.0056
-627.851
-225.741
23.808
147.903
-547.085
-230.66
-53.0838
18.3397
-395.03
-157.856
-69.8965
-21.2628
-342.387
-120.823
-5.76667
39.8769
-1008.92
-328.791
-100.135
19.3715
-1210.42
-337.602
-113.69
127.706
-937.878
-300.794
-59.1705
86.0977
-1086.47
-298.547
-126.494
105.735
-965.475
-310.928
-50.0496
80.0367
-1269.35
-354.713
-109.386
155.821
-905.694
-280.664
-11.6396
125.813
-1273.02
-352.073
-102
167.897
-127.205
-46.6198
-8.54223
21.3151
-108.468
-34.6012
-17.8416
18.4597
-323.866
-118.893
-7.86531
61.6109
-267.386
-87.4473
-41.8982
49.9268
-689.738
-224.145
-23.6129
118.644
-615.762
-187.914
-64.1027
101.183
-732.857
-235.058
-35.504
99.4611
-555.317
-166.561
-75.1193
111.968
-1081.19
-291.945
-114.634
172.536
-78.1629
-24.5904
-6.8867
14.3164
-34.2355
-14.1862
-4.05287
1.26345
-237.332
-72.4354
-34.155
30.2079
-112.918
-42.9203
-19.1806
-0.373799
-429.445
-124.449
-54.6421
52.9226
-230.964
-77.513
-29.5511
0.946958
-658.083
-181.114
-67.9974
83.5858
-408.081
-117.793
-40.0541
2.48806
-877.083
-225.281
-120.356
58.1496
-548.954
-143.933
-60.4106
-6.11041
-1175.57
-297.807
-135.471
70.0482
-556.279
-144.102
-55.9293
-1.23109
-1121.12
-283.971
-145.625
52.8993
-606.833
-154.848
-60.859
-5.14445
-1187.04
-290.531
-118.994
94.8459
-515.384
-125.409
-39.9006
10.6145
-1159.19
-270.856
-100.551
106.776
-481.182
-103.788
-24.6303
20.1338
0.7728
-0.993583
-0.723513
-0.394548
-0.23998
-3.08485
-2.50062
-1.36643
-0.692694
-0.411376
2.46195
-2.34253
-1.70435
-0.924514
-0.560885
-7.28915
-5.76572
-3.11843
-1.57096
-0.929774
5.21653
-2.79506
-2.11606
-1.14969
-0.696951
-10.5435
-7.84799
-4.18099
-2.09244
-1.23475
-5.86438
-4.12869
-2.17977
-1.08411
-0.636839
1.07645
-1.43512
-1.00774
-0.537974
-0.323054
0.706843
-3.56735
-2.30917
-1.21422
-0.728341
3.18742
-0.994366
-0.831078
-0.456707
-0.277614
-4.52144
-5.4397
-3.02955
-1.53418
-0.909848
2.00503
-1.25614
-0.897783
-0.481086
-0.29041
5.92318
-1.29526
-1.23635
-0.69384
-0.423477
3.85413
-0.762973
-0.708391
-0.392624
-0.238568
12.6181
0.969554
-0.299652
-0.264423
-0.177865
7.97213
0.703118
-0.0849259
-0.10325
-0.0721318
1.84898
-0.567333
-0.502733
-0.283206
-0.174024
0.101103
-0.702013
-0.453514
-0.241589
-0.146354
2.8807
-1.95717
-1.41145
-0.762071
-0.461854
-0.823567
-2.20572
-1.30457
-0.676832
-0.405891
8.28557
-1.82436
-1.61336
-0.895989
-0.546497
-2.6407
-3.48128
-1.93096
-0.98189
-0.583976
-4.342
-4.55157
-2.44188
-1.22735
-0.727286
-5.29688
-3.21686
-1.61268
-0.797572
-0.470023
-4.4315
-2.83998
-1.4273
-0.706417
-0.41669
35.725
-177.017
188.001
-427.604
455.909
-544.558
965.555
-358.625
1365.33
422.433
-534.205
-1214.74
776.635
487.62
-1172.4
-2023.94
-1607.51
-2384.58
-815.326
-197.598
-45.8405
-10.4098
-2.69588
-192.139
-115.05
-16.0194
-4.6208
-2.16552
-2515.27
-604.341
-140.564
-31.755
-8.23488
-448.6
-145.358
-38.8475
-8.63314
-2.48788
-4215.25
-1012.3
-236.02
-53.5115
-13.8532
-787.848
-261.089
-67.7919
-16.5852
-4.37527
-5627.51
-1351.28
-316.222
-71.9394
-18.6602
-986.395
-340.315
-89.784
-22.0007
-5.75919
-6999.57
-1690.63
-398.013
-91.0181
-23.726
-1179.8
-428.54
-114.598
-28.2219
-7.44634
-8183.49
-2031.38
-484.687
-111.879
-29.3474
-1954.71
-617.003
-156.754
-37.1367
-9.65694
-7677.92
-1899.42
-451.085
-103.629
-27.0744
-1485.9
-514.768
-135.155
-32.7273
-8.53231
-8391.98
-2086.45
-499.011
-115.442
-30.3515
-2239.16
-681.766
-170.53
-39.8238
-10.327
-8723.75
-2151.58
-515.548
-119.275
-31.3566
-2339.98
-713.244
-179.798
-39.1046
-10.7025
-517.161
-7757.2
-6723.74
-2191.55
-1630.06
-822.059
-3787.39
-2504.74
-7058.6
-6502.79
-3422.01
-2493.42
-155.127
-256.186
-472.741
-826.258
-1340.94
-2018.06
-117.485
-272.241
-600.329
-1118.34
-1820.72
-2656.26
-113.962
-51.8424
-209.44
-138.883
-412.396
-329.832
-742.1
-667.814
-1158.3
-1076.14
-1677.86
-1449.46
-2740.54
-3386.14
-4022.82
-6603.22
-7898.55
-9001.56
-3498.96
-4155.75
-4433.3
-4323.55
-3953.33
-3639.65
-139.469
-117.444
-88.6283
-55.037
-18.651
-230.017
-193.379
-145.691
-90.3553
-30.5983
-423.756
-355.564
-267.365
-165.571
-56.026
-739.014
-618.507
-463.942
-286.782
-96.9518
-1195.55
-997.008
-745.373
-459.674
-155.231
-1790.48
-1485.25
-1105.27
-679.626
-229.245
-105.545
-88.7934
-66.9434
-41.5399
-14.0714
-244.187
-205.047
-154.301
-95.6092
-32.3621
-537.562
-450.516
-338.38
-209.375
-70.8193
-999.092
-835.092
-625.673
-386.451
-130.6
-1621.25
-1350.19
-1008.28
-621.39
-209.79
-2354.48
-1951.29
-1451.1
-892.021
-300.881
-102.518
-86.3898
-65.2399
-40.5357
-13.741
-46.6499
-39.324
-29.7069
-18.4628
-6.25951
-188.199
-158.376
-119.437
-74.1282
-25.1131
-124.866
-105.147
-79.347
-49.2717
-16.6967
-370.049
-310.881
-234.046
-145.067
-49.1104
-296.156
-248.993
-187.594
-116.341
-39.3972
-664.524
-556.909
-418.257
-258.769
-87.5187
-598.335
-501.746
-377.035
-233.352
-78.9349
-1034.07
-863.556
-646.372
-398.911
-134.749
-961.302
-803.268
-601.502
-371.282
-125.417
-1490.09
-1237.12
-921.056
-566.356
-190.996
-1288.28
-1070.23
-796.92
-489.877
-165.134
-2413.08
-1986.26
-1469.07
-900.44
-303.574
-2944.87
-2396.01
-1757.99
-1074.77
-363.094
-3426.07
-2738.72
-1989.43
-1216.84
-415.279
-5418.57
-4219.91
-3036.54
-1879.25
-665.694
-6095.12
-4583.39
-3279.45
-2090.67
-808.018
-6645.4
-4885.31
-3486.39
-2273.67
-935.103
-3082.03
-2537.97
-1877.96
-1151.44
-388.221
-3628.56
-2963.11
-2179.72
-1333.67
-450.092
-3821.27
-3085.43
-2254.41
-1378.54
-467.274
-3649.05
-2898.27
-2101.31
-1289.27
-443.055
-3210.27
-2483.4
-1785.34
-1109.97
-396.451
-2843.09
-2144.11
-1530.6
-966.704
-360.357
-159.8
-271.814
-504.158
-881.658
-1431.95
-2149.44
-123.552
-292.772
-641.661
-1188.44
-1923.39
-2783.14
-117.983
-54.7988
-223.444
-150.047
-442.389
-356.775
-799.34
-725.131
-1262.62
-1206.83
-1839.79
-1684.3
-2900.46
-3560.23
-4204.07
-6733.08
-7954.68
-9015.51
-3627.37
-4257.5
-4490.44
-4331.69
-3932.13
-3626.62
-143.719
-121.075
-91.4101
-56.7862
-19.248
-244.24
-205.538
-155.015
-96.2222
-32.6012
-452.383
-380.075
-286.191
-177.431
-60.0779
-789.595
-661.918
-497.363
-307.878
-104.167
-1278.85
-1068.72
-800.756
-494.722
-167.235
-1911.37
-1589.95
-1186.62
-731.353
-247.011
-111.062
-93.5066
-70.5545
-43.8104
-14.8462
-262.875
-221.027
-166.558
-103.323
-34.9957
-575.244
-482.799
-363.19
-225.014
-76.1634
-1063.14
-890.117
-668.08
-413.243
-139.768
-1715.39
-1431.4
-1071.13
-661.23
-223.448
-2471.5
-2052.9
-1530.27
-942.48
-318.236
-106.173
-89.5092
-67.6276
-42.0359
-14.2527
-49.3346
-41.613
-31.4572
-19.5615
-6.63405
-200.934
-169.253
-127.768
-79.366
-26.9003
-135.012
-113.805
-85.9735
-53.4346
-18.1166
-397.354
-334.234
-251.96
-156.342
-52.9604
-320.671
-269.946
-203.657
-126.445
-42.8462
-716.738
-601.673
-452.681
-280.479
-94.9395
-650.638
-546.606
-411.549
-255.126
-86.3796
-1129.36
-945.381
-709.398
-438.71
-148.363
-1080.44
-905.333
-679.931
-420.716
-142.31
-1638.71
-1365.44
-1020.42
-629.369
-212.603
-1502.63
-1254.1
-938.4
-579.145
-195.659
-2561.62
-2116.26
-1571.1
-965.858
-326.156
-3109.15
-2542.17
-1874.51
-1150.44
-389.445
-3601.59
-2898.74
-2119.86
-1303.17
-445.81
-5559.08
-4359.44
-3158.79
-1965.45
-698.142
-6171.4
-4667.35
-3359.2
-2151.79
-833.755
-6669.8
-4914.26
-3515.42
-2297.15
-945.596
-3201.68
-2643.08
-1960.78
-1204.72
-406.645
-3725.38
-3050.09
-2249.71
-1379.47
-466.105
-3878.81
-3139.97
-2300.43
-1409.8
-478.491
-3663.1
-2916.33
-2119.93
-1303.79
-448.811
-3197.19
-2477.26
-1784.7
-1112.3
-398.248
-2833.85
-2138.18
-1527.68
-966.042
-360.608
-20001.2
-14171.5
-3686.63
-2568.85
-1981.64
-2599.98
-2667
-12637.8
-13543.7
-10603.9
-12112.5
-6435.44
-9819.67
-4740.79
-5017.4
-3514.98
-20027.6
-10249.1
-3453.52
-5683.07
-8043.6
-5290.67
-5473.2
-4046.05
-2385.2
-3261.12
-4024.44
-4070.51
-19483.3
-12514
-12109.7
-8390.6
-7996.72
-8844.6
-3488.18
-4167.35
-5812.14
-13488
-10916
-8384.26
-6873.74
-5150.54
-8974.29
-5949.29
-4292.26
-2963.88
-1358.35
-3216.75
-2628.09
-1937.01
-1188.92
-402.756
-2274.33
-1883.52
-1400.9
-861.971
-291.096
-1753.28
-1450.26
-1076.83
-661.36
-223.032
-2311.73
-1922.32
-1433.81
-883.095
-298.105
-2351.91
-1939.42
-1437.12
-882.188
-297.663
-8703.71
-6756.05
-5112.73
-4102.28
-3515.04
-9507.33
-7679.38
-5787.57
-4251.1
-2288.28
-7411.86
-5067.78
-3619.02
-2348.19
-942.692
-8552.14
-6664.39
-4917.36
-3361.6
-1502.14
-5314.27
-4144.43
-2963.33
-1797.4
-612.875
-7515.32
-5471.29
-3853.37
-2350.2
-827.561
-4025.45
-3205.28
-2316.34
-1406.09
-475.179
-4242.15
-3365.42
-2425.95
-1471.24
-497.381
-3015.9
-2421.75
-1758.39
-1067.96
-359.75
-13351.2
-10003.6
-7634.49
-5995.78
-4744
-7706.44
-5688.35
-4104.98
-2643.66
-1076.31
-2921.17
-2322.18
-1680.36
-1025
-349.823
-4819.75
-3846.45
-2797.95
-1718.86
-592.754
-6595.71
-5153.22
-3730.13
-2328.1
-844.551
-4465.74
-3552.75
-2584.06
-1593.29
-552.907
-4683.69
-3768.14
-2757.03
-1697.69
-583.038
-3498.45
-2834.33
-2077.23
-1273.02
-432.36
-2073.86
-1685.84
-1234.9
-753.102
-253.722
-2863.19
-2350.41
-1735.26
-1062.99
-358.545
-3459.84
-2785.64
-2029.14
-1236.9
-418.492
-3520.57
-2851.8
-2088.15
-1277.63
-433.198
-13002.7
-10173.2
-7848.11
-6233.89
-4725.88
-8515.58
-5934.22
-4304.01
-2920.52
-1336.86
-8918.08
-6919.67
-5043.55
-3434.81
-1514.18
-6511.75
-4849.63
-3510.98
-2258.34
-864.961
-6581.23
-5160.64
-3745.67
-2343.98
-847.802
-6859.17
-5107.92
-3696.74
-2373.11
-899.468
-2981.77
-2395.26
-1749.81
-1075.98
-369.098
-3646.32
-2984.19
-2199.57
-1347.69
-455.164
-4962.95
-3980.18
-2902.66
-1782.32
-610.462
-346.74
-1012.91
-1666.84
-2332.4
-2997.85
-3642.09
-3033.66
-8081.54
-7503.24
-2900.81
-10140.6
-8606.67
-9880.03
-10879
-2792.68
-1789.4
-6509.56
-3591.92
-11968.4
-8797.91
478.705
-2433.12
-6650.68
-6061.78
-2299.25
-8491.16
-6852.76
-8131.11
-9027.27
-2306.95
-1003.2
-5627.46
-1724.81
-9631.54
-5209.61
2196.76
-1732.62
-4920.38
-4436.53
-1628.26
-6515.29
-3820.66
-6361.13
-6841.32
-1706.03
-924.512
-3897.76
-1848.55
-7395.37
-1692.95
2358.87
-1222.92
-3666.11
-3333.01
-1181.5
-4766.84
-2050.44
-5049
-5730.26
-1243.93
-992.044
-2786.74
-1920.47
-6269.97
-33.3397
1780.58
-946.982
-2994.28
-2745.12
-950.571
-3635.37
-1588.43
-4348.76
-5404.25
-947.234
-1109.24
-1909.16
-1881.88
-5344.19
159.511
326.795
-808.546
-2571.74
-2441.27
-831.703
-3263.74
-1923.05
-3902.69
-5082.43
-699.867
-872.606
-1480.54
-1820.46
-5283.62
-912.302
-545.296
-1405.56
-3412.21
-5313.92
-2069.95
-5480.2
-9652.99
-7679.49
-10997.6
-934.319
-580.809
-3709.16
-2019.9
-911.5
-8832.42
-4280.89
-1292.72
-3142.75
-4597.36
-1772.25
-4991.42
-8579.21
-6812.33
-9161.4
-945.005
-477.572
-3799.38
-1827.77
-80.125
-8490.81
-2965.96
-1107.27
-2699.38
-3648.9
-1380.23
-4430.31
-7367.02
-5622.11
-7745.63
-809.217
-544.905
-3122.66
-1858.73
-325.51
-6507.9
-2706.6
-917.514
-2348.47
-2893.74
-1070.31
-3984.39
-6377.67
-4811.56
-6745.14
-707.728
-536.617
-2759.48
-1869.47
-230.255
-5775.58
-2615.77
-797.865
-2046.99
-2469.29
-897.888
-3476.08
-5629.89
-4236.9
-6224.96
-635.406
-588.382
-2396.15
-2000.85
-421.734
-5351.09
-2642.59
-720.564
-1773.64
-2226.73
-801.427
-3130.55
-5490.94
-3826.73
-5914.44
-645.744
-691.37
-2077.96
-1898.72
-701.767
-5454.62
-2975.02
6939.14
8765.09
17978
26438
27000.8
46407.1
20563.1
52158.8
16631.4
36478.7
24901.1
37887.8
22197.5
29382.3
8417.25
9593.23
17436.6
20019.5
22214.3
22066.2
17348.9
21278.6
25407.7
22735.2
5839.19
4546.22
7142.33
4922.91
14763.6
12028.9
25048.7
18419.4
19257.8
20170.7
21742.5
21224.5
8022.55
6059.29
45093.1
60392.1
29290
35922.9
59932.3
77924
31095.5
35631.3
33788
47724.3
29698.8
39248.4
17588.9
28142.3
3302.88
1145.34
3365.17
1238.39
10506.2
4281.98
14291.7
5318.54
10415.1
3959.25
10734.3
3471.39
18144.4
5820.42
23385
7954.31
27355.9
13831.5
25086.5
14853.7
25193.3
16328.2
22228.5
16457.9
20163
12067.5
20267.8
10573.1
25944.4
16371.3
26044
16472.8
23538.3
17302.2
23837.9
17311.6
21749.9
13763.8
22531.3
14065.6
20809.9
9228.53
9871.65
12304.9
20858.4
10154.1
8769.84
12684.6
22024.1
9124.84
11067.3
12272.9
23136.1
9327.31
11976.1
12755.9
4253.88
4620.65
1492.37
3003.89
13009.6
13811.8
5200.89
9651.86
16738.1
18362.8
8574.94
14780.5
12220.5
200.64
14725.1
19118.5
10921.4
-187.449
6791.52
13663.7
22548.8
17250.8
11260.4
14085
12892.5
11633.7
18511.6
3804.97
2986.17
2189.18
2174.4
11658.9
9407.95
7433.4
6952.18
14268.2
11357.7
9594.17
8455.93
5437.88
7157.6
11649.4
12307.6
15259.5
13742.7
17366.5
14681.1
12844.8
10811.4
9479.54
9318.27
12719.1
9065.35
11964.9
7796.71
10730.8
6641.14
13256.5
8337.09
10712.9
3857.65
9474.75
9574.38
13031.4
16183.3
14444.6
20398.2
7772.64
7957.57
9674.3
1791.9
8545.51
15747.2
8147.34
17064.8
14352.3
25334.4
14603.7
27091.2
6746.46
13935.1
6223.29
15032.5
9487.47
6552.42
13571.4
4919.65
9342.81
538.969
11620.9
-353.233
9261.85
10291.8
14280.9
6360.32
7793.2
12290.9
12774
8446.19
2180.55
1848.1
1531.32
1642.75
1449.72
1222.5
7200.77
5344.23
4221.9
4883.19
3517.16
2779.81
8245.52
6486.67
5706.9
5738.13
4170.71
3712.55
5842.6
4591.18
4267.03
10313.7
6855.66
5349.75
10378.1
6714.8
4943.97
10766.5
7581.4
6167.39
7632.39
4457.74
3177.37
14740.6
11449.8
9049.33
10077
7517
5535.77
9623.2
6621.72
4590.25
8637.64
5525.95
3638.76
9787.24
5006.97
2417.16
11189.2
14960.2
9027.15
11461.9
12566
18160.7
11389.7
16214.3
54.8751
607.683
-419.362
106.08
3048.92
3381.65
1377.91
862.123
916.83
2583.74
9838.86
14100.9
6635.05
3918.89
10794.1
10730.8
17080.7
18831.8
-508.524
-4307.51
8021.16
7497.41
7474.33
5728.41
899.694
485.579
641.957
312.154
2082.81
183.611
-107.241
-674.923
9287.82
2210.28
6515.19
1673.73
9294.98
2763.25
11160.2
3417.73
9628.47
12259.5
8801.93
11891.1
15770.5
16130.7
14943.3
15170.2
5817.45
9098
6766.36
9078.4
9269.36
11412.9
10137.4
11451.9
15535.5
14841.2
16214.3
14828.4
5823.24
8759.72
6257.36
8840.9
-325.824
890.932
6594.63
3477.63
-782.356
529.029
6111.14
3049.62
91.0328
1141.07
6703.37
3791.19
451.194
1340.93
6662.09
3868.69
-614.294
-690.942
128.577
-37.4986
-2706.1
-2655.9
-251.101
-462.956
-611.423
-1822.25
1287.22
597.844
-9931.91
-10021.1
-5223.64
-4008.6
-628.907
-10851.7
-10449.7
-3914.18
-5723.36
-1021.86
11002.4
8304.67
6827.94
5868.81
2979.97
-636.903
-521.911
-95.9711
-53.4771
-2130.52
-1853.19
-273.88
-145.625
-2193.54
-2363
256.001
342.984
-4959.49
-1830.13
-7451.55
-4136.32
-3106.66
-2054.49
-3503.15
-2730.13
-41.4914
538.203
4042.51
2492.19
1283.58
-663.521
957.049
-565.119
1212.84
78.0546
1108.66
1152.77
5119.79
4473.37
9620.68
5701.72
8304.53
7950.91
12512.4
9878.21
7039.66
3962.86
3473.62
3256.49
11322.6
4940.52
12398.7
5515.27
13936.4
10106.9
14833.9
10880.7
8573
3216.86
9556.39
3713.63
4883.38
3493.86
2956.67
4213.72
3020.58
3144.91
2466.08
3884.63
5677.8
3383.45
3346.84
4846.54
6986.95
3656.61
4435.38
4965.77
-450.049
-417.445
-446.008
-56.4389
-155.783
-162.773
-1706.26
-1632.12
-1554.53
-187.353
-448.289
-430.516
-2283.99
-2255.51
-2172.6
226.909
-454.936
-571.813
-760.204
-623.329
-334.318
-2529.89
-2449.43
-2175.05
-1957.53
-2061.21
-1950.49
-2451.06
-2370.56
-2194.72
665.421
-202.578
-259.381
3584.16
2031.27
1126.62
-349.557
-1095.2
-1465.57
-425.396
-1275.14
-1609.84
-205.729
-1055.33
-1271.81
1265.14
-257.758
-425.666
-13.1737
-13.5808
-13.051
-19.1701
-172.287
-77.6762
-53.6786
-40.6144
1.43439
-24.9848
-72.5848
-92.7635
-283.708
-141.552
-146.877
-123.657
172.458
14.9569
-106.245
-173.514
-63.9543
-88.4059
-107.535
-103.347
26.3557
-43.4397
-34.9123
-30.484
187.714
32.4036
-40.4568
-63.3285
703.564
172.462
16.3944
-66.7944
1025.11
253.229
72.9848
-135.906
471.274
89.803
-40.7672
-136.782
834.318
194.721