/*--------------------------------*- C++ -*----------------------------------*\
  =========                 |
  \\      /  F ield         | OpenFOAM: The Open Source CFD Toolbox
   \\    /   O peration     | Website:  https://openfoam.org
    \\  /    A nd           | Version:  11
     \\/     M anipulation  |
\*---------------------------------------------------------------------------*/
FoamFile
{
    format      ascii;
    class       volScalarField;
    location    "1";
    object      T;
}
// * * * * * * * * * * * * * * * * * * * * * * * * * * * * * * * * * * * * * //

dimensions      [0 0 0 1 0 0 0];

internalField   nonuniform List<scalar> 
5712
(
533.53
552.289
521.623
544.278
504.712
533.402
476.159
509.8
475.976
502.565
501.604
527.815
517.284
540.097
527.658
548.049
494.451
471.25
517.367
483.992
464.058
440.218
486.613
451.168
542.394
550.587
557.392
561.969
530.546
540.68
550.18
556.71
531.249
513.329
505.391
493.384
526.16
542.969
539.382
538.989
495.703
500.368
513.294
512.119
462.256
465.921
547.054
549.546
518.042
525.053
557.359
560.577
555.908
566.009
565.551
570.129
547.767
562.699
561.546
568.494
531.626
555.583
545.939
562.732
556.152
566.795
560.083
568.217
454.33
440.732
463.318
444.125
420.938
409.083
429.831
412.411
493.406
475.095
484.552
471.225
469.548
445.737
471.072
445.493
435.795
414.07
437.173
413.855
499.489
476.942
501.131
476.911
520.539
552.692
506.336
542.452
511.966
547.516
501.552
538.077
526.387
555.591
508.67
544.717
528.215
556.637
508.954
545.698
546.493
528.113
560.836
547.431
534.544
516.393
555.874
540.88
517.098
500.721
547.379
531.683
436.022
397.874
470.129
499.137
537.08
391.389
428.959
462.171
488.919
523.726
397.722
432.373
464.573
494.407
529.524
495.443
466.732
501.459
473.97
489.283
462.539
499.874
472.364
480.132
455.35
497.714
470.837
379.64
364.723
417.421
400.228
448.43
428.615
473.326
450.905
498.314
473.461
384.797
368.711
420.204
405.554
452.149
435.767
480.264
460.991
505.03
483.597
426.27
418.863
425.762
419.709
390.86
370.271
391.647
371.007
457.999
455.173
458.458
453.189
423.68
419.55
423.626
419.917
391.159
371.731
391.2
372.06
455.652
455.104
455.681
455.659
488.666
485.637
514.108
510.19
487.717
481.75
512.363
505.147
487.777
486.422
514.683
512.029
486.485
485.84
513.586
511.19
436.068
412.687
400.613
439.593
414.447
401.941
433.908
410.147
397.58
438.466
412.535
399.384
427.426
403.64
390.948
437.118
409.402
395.266
348.343
336.028
329.702
379.833
361.894
352.097
404.871
382.384
369.854
423.177
397.831
384.205
438.198
407.471
391.439
350.933
336.059
328.338
386.806
366.669
355.249
412.434
386.98
372.231
431.449
400.845
383.649
443.736
408.751
389.833
392.305
382.71
398.296
388.687
426.096
409.073
437.835
417.433
367.101
344.11
368.28
345.91
368.499
346.94
370.289
348.767
369.725
365.896
368.965
363.546
350.396
353.704
392.859
395.412
423.359
426.118
372.8
376.828
372.653
374.926
356.457
359.135
322.413
305.131
327.311
307.965
324.96
305.676
329.668
308.806
329.059
306.481
335.519
310.579
338.936
313.111
340.203
314.399
364.351
354.482
372.015
358.001
390.504
379.355
398.651
382.9
351.009
337.279
344.002
334.036
376.216
359.84
377.726
360.176
403.496
384.702
404.919
384.746
354.76
339.062
356.268
339.555
331.21
308.282
320.872
303.752
325.151
305.056
318.101
301.929
334.718
310.613
322.447
304.858
336.36
312.064
322.992
305.362
307.148
297.759
299.525
293.831
309.3
300.148
299.902
294.543
313.438
305.426
300.888
296.46
344.678
367.223
328.286
316.238
301.004
361.752
339.872
322.022
310.96
298.113
366.966
344.528
327.04
313.698
299.643
290.92
285.429
288.896
284.272
293.309
287.432
289.977
285.316
298.161
291.601
292.129
287.295
350.602
337.581
329.901
318.629
314.833
305.959
304.569
297.08
294.702
289.636
354.578
339.123
333.731
320.404
318.565
307.952
307.114
298.37
296.331
290.663
338.283
321.005
341.597
323.423
360.287
339.836
363.298
341.565
324.712
310.599
321.811
308.345
344.202
324.899
344.725
325.394
365.228
342.491
365.556
342.906
327.185
312.11
327.709
312.548
310.412
299.587
297.899
290.853
308.868
297.991
297.194
290.233
311.682
300.706
298.334
291.138
312.907
301.282
299.062
291.815
280.304
277.83
276.854
277.614
275.717
275.07
282.169
279.281
278.119
278.509
276.439
275.669
285.805
282.285
280.797
279.979
277.424
276.443
324.609
315.548
311.11
308.418
301.822
298.777
297.871
292.69
290.465
289.912
285.374
283.385
281.183
278.026
276.788
324.294
313.31
308.204
308.483
300.072
296.321
298.262
291.649
288.816
289.805
284.664
282.615
280.791
277.676
276.481
291.685
283.564
279.035
276.447
292.832
283.958
279.139
276.442
291.75
283.607
279.075
276.479
293.206
284.123
279.252
276.52
291.724
283.632
279.206
276.605
293.474
284.267
279.441
276.665
294.439
284.682
279.474
276.612
295.13
285.048
279.592
276.651
292.727
284.093
279.426
276.704
291.323
283.743
279.385
276.839
291.402
283.588
279.309
276.754
290.571
283.414
279.273
276.845
293.751
284.525
279.525
276.697
291.901
284.02
279.489
276.884
294.472
284.873
279.662
276.775
292.326
284.247
279.613
276.975
289.828
282.957
278.913
276.509
287.713
282.276
278.754
276.602
289.846
282.976
278.95
276.548
287.893
282.346
278.786
276.631
289.962
283.037
279.04
276.637
288.401
282.533
278.874
276.691
289.856
283.051
279.116
276.75
288.816
282.702
278.981
276.776
289.708
283.074
279.175
276.867
286.086
281.786
278.502
276.759
285.187
281.548
278.408
276.784
286.439
281.909
278.559
276.794
285.566
281.679
278.461
276.812
287.094
282.141
278.646
276.841
286.234
281.918
278.546
276.857
287.908
282.444
278.797
276.923
287.021
282.213
278.669
276.923
288.707
282.788
278.979
277.012
287.721
282.524
278.807
276.998
289.769
283.365
279.211
277.12
288.734
283.117
279.109
277.164
289.3
283.1
279.097
277.063
288.269
282.84
278.961
277.081
290.129
283.586
279.29
277.165
289.125
283.366
279.23
277.237
290.454
283.782
279.395
277.234
289.472
283.582
279.347
277.313
274.892
274.051
273.569
273.315
273.207
274.892
274.052
273.57
273.316
273.208
274.909
274.058
273.572
273.316
273.208
274.914
274.062
273.574
273.317
273.209
274.932
274.067
273.575
273.318
273.209
274.939
274.072
273.578
273.319
273.21
274.966
274.085
273.584
273.322
273.211
275.003
274.103
273.593
273.326
273.214
274.961
274.079
273.581
273.32
273.21
274.988
274.087
273.584
273.322
273.211
274.951
274.073
273.578
273.319
273.21
274.976
274.08
273.581
273.32
273.21
274.985
274.091
273.586
273.323
273.212
275.011
274.097
273.588
273.324
273.212
275.02
274.108
273.594
273.327
273.214
275.043
274.112
273.595
273.327
273.214
274.896
274.05
273.568
273.315
273.207
274.902
274.05
273.568
273.314
273.207
274.91
274.056
273.57
273.316
273.208
274.912
274.054
273.569
273.315
273.207
274.932
274.064
273.574
273.317
273.208
274.932
274.061
273.572
273.316
273.208
274.955
274.072
273.577
273.318
273.209
274.952
274.069
273.576
273.318
273.209
274.968
274.076
273.579
273.319
273.21
511.09
506.672
511.265
506.96
512.101
508.04
514.371
510.421
519.092
515.109
527.284
527.552
524.725
523.601
528.416
529.246
528.779
529.506
560.361
570.262
572.374
572.858
572.963
549.63
567.296
571.693
572.708
572.928
560.592
570.327
572.39
572.862
572.964
549.981
567.404
571.716
572.716
572.929
560.886
570.404
572.409
572.866
572.965
550.492
567.542
571.749
572.723
572.931
561.546
570.558
572.444
572.874
572.967
551.43
567.773
571.801
572.734
572.933
562.708
570.804
572.497
572.885
572.97
552.987
568.124
571.876
572.75
572.937
563.894
570.988
572.53
572.891
572.971
556.518
568.862
572.026
572.78
572.944
563.544
570.937
572.521
572.89
572.971
555.139
568.563
571.966
572.768
572.941
564.032
571.009
572.533
572.891
572.971
557.212
569.03
572.062
572.787
572.945
564.144
571.035
572.539
572.893
572.971
557.394
569.092
572.073
572.789
572.946
407.013
446.995
444.749
402.848
385.26
386.851
388.904
391.971
401.521
405.88
434.612
445.034
443.601
454.787
417.057
422.208
403.58
407.342
396.16
398.433
345.876
328.007
286.607
282.38
283.555
281.911
284.868
340.557
331.934
316.926
319.536
314.312
299.258
307.023
302.186
294.584
296.857
293.079
339.153
312.875
297.784
295.39
302.132
299.025
293.05
291.039
288.628
286.523
292.439
290.737
342.48
321.28
328.453
310.371
303.455
314.361
293.132
287.416
295.138
328.494
314.614
303.361
292.466
280.696
317.996
308.386
298.783
289.146
278.863
285.086
283.041
280.485
277.609
274.556
281.377
280
278.243
276.239
274.095
282.422
280.867
278.887
276.633
274.227
280.967
279.665
277.997
276.088
274.044
283.572
281.809
279.58
277.056
274.369
324.579
310.929
300.12
290.065
279.829
317.375
304.954
295.315
286.542
277.772
309.222
301.26
293.19
285.268
277.248
308.469
298.557
290.589
283.379
276.509
304.638
295.746
288.531
282.055
276.007
295.618
291.22
286.235
281.018
275.692
301.525
295.455
289.044
282.643
276.243
297.648
292.487
286.925
281.331
275.777
291.826
288.339
284.234
279.832
275.293
293.604
289.624
285.073
280.298
275.442
290.576
287.367
283.545
279.418
275.154
324.446
311.391
300.753
290.559
280.02
306.579
299.671
292.319
284.836
277.105
294.53
290.49
285.8
280.798
275.628
292.575
289.006
284.78
280.203
275.43
298.116
293.298
287.833
282.064
276.079
295.658
291.47
286.579
281.316
275.815
290.64
287.521
283.751
279.601
275.23
288.921
286.138
282.736
278.974
275.014
286.838
284.45
281.497
278.211
274.755
285.017
282.983
280.436
277.574
274.542
290.077
287.018
283.335
279.315
275.125
288.648
285.903
282.553
278.855
274.973
326.608
313.315
302.41
291.818
280.555
313.105
304.783
296.192
287.44
278.152
318.474
308.085
298.486
288.902
278.751
304.947
298.724
291.835
284.601
276.995
299.349
294.383
288.696
282.631
276.277
307.928
300.85
293.263
285.479
277.346
290.705
287.564
283.773
279.608
275.231
285.788
283.608
280.894
277.854
274.637
292.387
288.882
284.71
280.171
275.421
490.562
536.386
482.945
530.592
456.827
509.442
464.019
515.176
469.76
453.991
507.142
475.046
442.442
426.098
477.442
443.684
509.658
526.233
546.091
553.722
502.308
518.36
541.526
549.883
521.651
490.824
496.501
475.777
506.737
535.041
536.111
538.173
491.743
499.316
510.052
511.228
458.813
464.945
543.748
548.775
514.25
524.092
554.866
560.038
543.041
561.873
560.946
568.607
535.37
558.72
557.475
567.082
519.71
551.831
539.974
560.762
553.965
566.033
559.63
568.049
446.827
438.066
458.27
442.415
416.143
408.239
426.2
411.659
488.094
473.214
476.236
468.185
466.989
444.825
470.346
445.225
433.873
413.617
436.625
413.723
496.83
475.948
500.377
476.615
516.584
551.377
504.958
541.988
505.819
545.514
499.367
537.413
524.389
554.896
507.933
544.453
527.643
556.428
508.731
545.615
526.146
506.217
554.582
540.745
516.265
497.457
550.204
535.131
502.032
485.801
542.781
527.429
435.16
405.403
463.662
492.32
534.916
401.522
429.506
455.388
481.21
521.635
403.077
432.028
461.432
491.61
528.841
478.484
459.26
497.542
479.136
474.274
455.889
497.104
478.094
467.763
449.988
496.463
477.114
392.812
381.644
420.26
407.088
444.513
429.25
468.705
451.489
499.011
480.052
393.106
379.83
422.538
411.828
451.432
439.853
479.515
465.193
506.022
488.974
426.619
421.224
425.728
420.669
393.829
375.929
392.733
373.522
457.435
455.405
457.636
454.16
423.597
419.859
423.59
419.982
391.557
372.721
391.303
372.318
455.323
455.092
455.573
455.633
488.18
485.729
514.011
510.46
487.028
482.597
512.423
506.292
487.477
486.336
514.576
512.039
486.378
485.794
513.541
511.172
447.339
442.096
463.511
456.465
444.046
437.994
462.125
453.787
437.767
431.314
460.241
449.949
372.113
365.575
396.497
388.966
417.613
409.159
438.217
429.314
460.554
446.668
367.43
359.661
401.609
392.065
426.953
414.999
447.517
432.622
462.624
444.491
384.245
377.391
395.012
385.865
411.881
399.478
432.068
412.308
365.007
345.257
369.294
347.956
364.802
347.454
369.747
350.134
368.571
362.512
368.003
361.641
350.495
354.227
391.306
394.916
420.787
425.339
371.99
376.5
371.998
374.685
356.625
359.148
330.109
312.423
331.927
313.402
331.841
312.411
333.344
313.376
335.08
312.448
338.12
314.235
340.225
315.241
340.608
315.112
366.448
358.273
372.099
359.749
389.155
381.04
396.874
383.475
352.733
339.778
348.725
338.896
376.011
360.622
377.649
360.414
402.408
384.887
404.597
384.804
355.397
340.268
356.437
339.924
334.385
311.447
323.573
306.067
331.605
310.073
322.967
305.66
336.183
312.36
323.816
306.121
336.781
312.615
323.416
305.763
326.668
322.309
310.218
306.947
328.23
324.034
310.038
306.926
330.779
327.36
309.855
307.265
360.019
380.544
343.656
328.321
308.167
378.359
359.42
342.924
327.293
306.866
377.003
355.84
337.413
322.039
305.062
317.401
312.154
302.929
297.192
319.524
314.371
303.303
297.753
323.029
318.03
303.95
298.586
370.656
361.132
352.596
344.758
337.103
331.197
322.216
316.846
303.675
298.448
367.738
354.513
347.779
336.21
330.875
321.317
316.602
308.238
302.051
296.215
344.724
328.948
344.51
327.155
365.826
347.777
365.561
345.144
327.772
314.006
327.95
315.16
345.458
326.51
345.083
325.837
366.129
343.981
365.805
343.306
328.591
313.637
328.12
312.976
313.151
302.27
299.935
292.663
313.975
303.078
300.657
293.422
313.036
301.97
299.406
292.052
313.328
301.66
299.392
292.084
308.094
306.652
288.043
287.213
310.726
308.948
288.723
287.766
314.151
311.159
289.489
287.377
352.902
347.133
337.907
333.262
325.803
322.176
311.482
307.287
288.845
285.425
343
337.239
326.44
321.956
313.072
309.565
300.169
297.034
285.035
282.41
295.993
285.784
280.132
276.985
296.477
285.928
280.138
276.939
295.744
285.681
280.095
276.971
296.339
285.845
280.132
276.958
295.243
285.486
280.135
277.054
295.998
285.677
280.184
277.04
296.028
285.599
279.961
276.86
295.684
285.374
279.767
276.742
294.791
285.258
280.057
277.038
292.897
284.667
279.91
277.143
294.35
285.179
280.143
277.18
292.944
284.749
279.994
277.237
294.986
285.245
279.923
276.916
292.804
284.565
279.81
277.081
294.884
285.117
279.799
276.85
292.622
284.428
279.721
277.043
295.105
285.519
280.148
277.115
293.871
285.174
280.13
277.29
294.845
285.424
280.13
277.121
293.728
285.122
280.107
277.289
294.429
285.271
280.131
277.164
293.543
285.043
280.08
277.29
293.659
285.016
280.101
277.236
293.226
284.927
280.068
277.315
292.891
284.784
280.06
277.328
292.703
284.895
279.949
277.561
291.93
284.747
279.917
277.655
292.683
284.873
279.95
277.566
291.922
284.727
279.91
277.652
292.603
284.821
279.915
277.547
291.856
284.677
279.877
277.638
292.405
284.726
279.909
277.545
291.678
284.592
279.848
277.626
292.031
284.583
279.906
277.55
291.301
284.465
279.808
277.609
291.249
284.26
279.725
277.45
290.348
284.111
279.669
277.524
291.594
284.42
279.816
277.502
290.773
284.292
279.746
277.574
290.96
284.106
279.598
277.371
290.012
283.936
279.56
277.454
290.721
283.952
279.497
277.303
289.75
283.765
279.454
277.384
275.139
274.167
273.622
273.34
273.222
275.126
274.163
273.621
273.339
273.221
275.133
274.163
273.62
273.339
273.221
275.118
274.158
273.618
273.338
273.221
275.13
274.159
273.618
273.338
273.22
275.107
274.152
273.615
273.337
273.22
275.083
274.141
273.61
273.334
273.218
275.047
274.124
273.602
273.331
273.216
275.112
274.15
273.613
273.336
273.219
275.122
274.149
273.612
273.335
273.219
275.131
274.157
273.616
273.337
273.22
275.137
274.155
273.615
273.336
273.219
275.088
274.14
273.609
273.334
273.218
275.101
274.14
273.608
273.333
273.218
275.056
274.125
273.602
273.33
273.216
275.074
274.127
273.602
273.33
273.216
275.157
274.17
273.623
273.34
273.222
275.174
274.173
273.624
273.34
273.222
275.154
274.168
273.622
273.34
273.221
275.171
274.171
273.623
273.34
273.222
275.151
274.164
273.619
273.339
273.221
275.166
274.168
273.621
273.339
273.221
275.15
274.161
273.617
273.337
273.22
275.158
274.163
273.618
273.338
273.22
275.146
274.158
273.616
273.337
273.22
512.35
510.125
512.864
510.607
514.13
511.837
516.54
514.025
520.685
517.877
527.472
527.865
525.322
524.608
528.451
529.308
528.779
529.509
560.822
570.372
572.398
572.863
572.964
550.699
567.538
571.744
572.718
572.93
561.07
570.435
572.413
572.866
572.965
551.068
567.643
571.765
572.726
572.931
561.379
570.508
572.43
572.87
572.966
551.578
567.772
571.796
572.732
572.933
561.995
570.648
572.462
572.877
572.968
552.423
567.978
571.842
572.742
572.935
563.018
570.866
572.509
572.888
572.97
553.749
568.283
571.908
572.756
572.938
563.951
571.004
572.533
572.892
572.971
556.676
568.907
572.037
572.782
572.944
563.688
570.971
572.529
572.891
572.971
555.534
568.658
571.987
572.772
572.942
564.051
571.016
572.535
572.892
572.971
557.259
569.047
572.066
572.788
572.945
564.148
571.037
572.539
572.893
572.971
557.403
569.095
572.074
572.789
572.946
406.269
445.98
441.536
400.688
390.505
398.06
388.196
397.55
420.121
440.178
424.274
442.01
274.157
274.411
274.974
275.938
277.454
279.726
274.36
274.638
275.253
276.288
277.869
280.155
274.011
273.941
274.265
274.212
274.837
274.828
275.83
275.93
277.384
277.64
279.588
279.836
283.011
287.552
293.661
301.546
309.548
314.834
283.316
287.464
292.595
298.341
303.604
306.88
274.044
273.883
273.669
273.417
273.141
274.272
274.074
273.813
273.506
273.172
274.777
274.499
274.134
273.705
273.239
275.641
275.225
274.679
274.043
273.354
276.997
276.359
275.53
274.569
273.531
279.021
278.046
276.79
275.345
273.793
274.226
274.036
273.784
273.488
273.166
274.476
274.246
273.942
273.586
273.199
275.027
274.708
274.291
273.802
273.272
275.953
275.484
274.873
274.162
273.394
277.364
276.663
275.756
274.707
273.578
279.398
278.354
277.017
275.484
273.84
273.912
273.772
273.585
273.365
273.124
273.849
273.718
273.545
273.34
273.115
274.141
273.964
273.73
273.455
273.154
274.093
273.924
273.7
273.436
273.148
274.654
274.397
274.057
273.657
273.223
274.647
274.391
274.053
273.655
273.222
275.546
275.146
274.621
274.007
273.341
275.636
275.222
274.679
274.043
273.354
276.937
276.311
275.496
274.548
273.524
277.168
276.505
275.642
274.639
273.555
278.903
277.951
276.722
275.304
273.78
279.127
278.14
276.864
275.393
273.81
281.929
280.452
278.577
276.443
274.163
285.911
283.715
280.982
277.915
274.66
291.19
287.985
284.104
279.823
275.305
297.847
293.276
287.941
282.178
276.115
304.352
298.32
291.579
284.444
276.926
308.547
301.533
293.891
285.9
277.46
282.194
280.666
278.733
276.538
274.195
285.835
283.654
280.938
277.888
274.651
290.294
287.279
283.597
279.514
275.2
295.219
291.238
286.483
281.28
275.8
299.655
294.761
289.04
282.851
276.34
302.389
296.918
290.605
283.817
276.676
274.173
274.463
275.075
276.113
277.743
280.186
274.378
274.697
275.364
276.472
278.153
280.568
274.026
273.955
274.314
274.261
274.936
274.932
276.011
276.128
277.698
277.994
280.132
280.491
283.686
288.42
294.639
302.433
310.139
315.037
283.869
288.129
293.3
298.966
304.028
307.029
274.058
273.895
273.678
273.423
273.144
274.319
274.114
273.844
273.526
273.178
274.869
274.578
274.194
273.743
273.252
275.801
275.361
274.784
274.109
273.376
277.261
276.585
275.704
274.678
273.569
279.441
278.406
277.067
275.52
273.853
274.243
274.05
273.795
273.495
273.168
274.529
274.291
273.977
273.608
273.206
275.128
274.795
274.357
273.844
273.286
276.121
275.628
274.983
274.232
273.417
277.624
276.885
275.926
274.815
273.615
279.775
278.678
277.267
275.642
273.894
273.926
273.783
273.594
273.37
273.126
273.862
273.73
273.553
273.345
273.117
274.185
274.002
273.759
273.473
273.161
274.138
273.962
273.729
273.454
273.154
274.744
274.473
274.115
273.694
273.236
274.741
274.471
274.114
273.693
273.235
275.71
275.286
274.728
274.075
273.364
275.816
275.376
274.796
274.117
273.379
277.223
276.556
275.684
274.667
273.565
277.49
276.781
275.854
274.773
273.601
279.399
278.376
277.048
275.51
273.85
279.723
278.651
277.257
275.64
273.894
282.548
280.984
278.988
276.703
274.253
286.71
284.408
281.521
278.258
274.778
292.1
288.783
284.732
280.226
275.445
298.687
294.026
288.542
282.569
276.252
304.926
298.843
292.005
284.727
277.027
308.748
301.718
294.045
286.003
277.498
282.701
281.103
279.071
276.752
274.269
286.447
284.185
281.351
278.151
274.741
290.948
287.85
284.045
279.801
275.299
295.804
291.755
286.892
281.544
275.892
300.057
295.119
289.327
283.038
276.406
302.531
297.046
290.708
283.885
276.7
346.202
328.283
287.781
283.216
285.03
282.939
286.224
347.667
343.8
324.082
333.572
304.721
314.792
299.131
302.418
297.136
343.136
317.268
301.864
298.383
305.701
301.452
294.522
293.079
291.539
288.722
295.848
293.302
343.634
322.142
330.913
311.793
305.383
317.398
295.04
289.189
297.587
328.88
314.989
303.692
292.708
280.795
318.287
308.665
299.022
289.314
278.928
286.165
283.975
281.209
278.07
274.714
282.141
280.657
278.75
276.559
274.204
283.766
282.019
279.773
277.191
274.418
281.905
280.468
278.615
276.477
274.177
284.814
282.877
280.405
277.578
274.548
332.359
318.16
306.087
294.095
281.344
329.728
316.11
304.28
292.39
279.783
316.269
307.681
298.37
288.658
278.444
322.799
311.162
300.588
289.831
278.747
300.758
295.754
289.806
283.31
276.484
308.987
302.123
294.345
286.066
277.43
296.064
292.048
287.137
281.687
275.932
298.872
294.291
288.759
282.668
276.262
294.367
290.694
286.157
281.091
275.73
328.783
315.559
304.279
292.994
280.98
310.853
303.554
295.459
286.9
277.837
298.351
293.852
288.445
282.496
276.214
295.366
291.455
286.703
281.436
275.856
301.495
296.303
290.221
283.61
276.618
297.938
293.486
288.175
282.346
276.173
292.01
288.722
284.694
280.206
275.439
290.808
287.78
284.017
279.791
275.296
289.507
286.751
283.276
279.338
275.141
287.027
284.71
281.767
278.415
274.83
293.237
289.771
285.483
280.685
275.596
291.018
287.963
284.157
279.876
275.324
327.932
314.587
303.517
292.615
280.88
313.984
305.609
296.886
287.917
278.331
321.027
310.498
300.52
290.298
279.268
306.329
299.984
292.863
285.284
277.239
301.182
296.022
290.009
283.488
276.577
310.899
303.571
295.484
286.953
277.874
292.478
289.116
284.99
280.387
275.5
287.419
285.018
281.988
278.548
274.876
294.67
290.885
286.284
281.181
275.77
276.751
284.111
291.139
297.606
303.078
307.438
467.425
460.709
435.234
441.651
450.028
440.188
424.795
413.519
489.073
506.621
481.741
497.228
471.111
461.569
483.791
455.383
450.003
425.459
430.54
441.082
432.558
416.927
407.438
476.499
488.399
470.151
480.317
460.281
451.596
468.811
438.484
434.655
411.714
415.31
427.92
421.217
405.351
397.616
457.368
468.174
452.402
461.98
445.003
437.904
452.922
420.671
417.968
397.133
399.744
412.796
407.166
392.266
385.879
438.78
450.067
434.916
445.103
429.06
422.372
437.313
407.577
405.484
386.42
388.521
401.17
396.44
382.364
376.742
424.548
436.785
421.358
432.882
416.824
411.064
426.275
398.628
396.84
379.072
380.911
393.135
389.212
375.436
370.379
415.172
429.477
412.338
425.701
408.743
403.799
419.152
382.828
379.719
406.392
410.967
375.454
370.219
399.028
390.169
360.132
340.11
359.37
341.93
355.895
355.509
344.774
377.853
374.994
399.378
403.293
371.062
366.275
392.965
384.919
355.156
336.187
354.539
338.087
351.3
351.348
340.635
369.978
367.529
388.907
391.956
364.146
359.882
383.761
377.041
349.915
331.644
349.236
333.276
346.391
346.358
335.507
360.406
358.375
377.075
379.441
355.331
351.179
372.944
366.909
342.771
326.435
342.204
327.755
339.71
339.522
329.793
352.925
351.158
368.179
370.165
348.51
344.697
364.623
359.268
336.944
322.798
336.46
323.711
334.47
334.163
325.566
347.67
346.074
362.034
363.808
343.844
340.58
358.811
353.997
333.303
320.417
332.912
321.233
331.17
330.997
323.116
534.233
552.886
521.657
544.227
504.725
533.38
476.147
509.778
475.962
502.539
501.625
527.796
517.343
540.072
528.48
548.796
494.447
471.239
517.35
483.979
464.042
440.203
486.593
451.152
542.937
550.966
557.824
562.255
530.543
540.661
550.114
556.658
531.224
513.319
505.375
493.374
526.146
542.942
539.375
538.984
495.692
500.359
513.283
512.111
462.243
465.909
547.045
549.542
518.032
525.046
557.35
560.574
556.173
566.113
565.733
570.196
547.742
562.688
561.512
568.481
531.611
555.576
545.919
562.725
556.144
566.792
560.08
568.216
454.32
440.723
463.307
444.116
420.925
409.072
429.818
412.4
493.395
475.088
484.543
471.217
469.538
445.729
471.062
445.485
435.784
414.061
437.162
413.846
499.48
476.935
501.123
476.904
520.53
552.688
506.33
542.45
511.956
547.511
501.545
538.074
526.38
555.588
508.665
544.715
528.209
556.635
508.949
545.696
546.84
528.504
560.98
547.629
534.514
516.361
555.86
540.858
517.082
500.705
547.371
531.673
436.014
397.865
470.12
499.127
537.075
391.381
428.951
462.162
488.908
523.719
397.713
432.364
464.565
494.4
529.52
495.814
467.007
501.717
474.165
489.259
462.531
499.863
472.362
480.118
455.343
497.707
470.835
379.633
364.718
417.414
400.222
448.422
428.609
473.316
450.898
498.309
473.458
384.789
368.705
420.197
405.548
452.142
435.761
480.258
460.986
505.026
483.594
426.262
418.857
425.754
419.703
390.852
370.265
391.639
371.001
457.993
455.168
458.452
453.183
423.673
419.545
423.619
419.911
391.151
371.725
391.192
372.054
455.645
455.098
455.674
455.654
488.661
485.632
514.105
510.187
487.712
481.745
512.36
505.144
487.772
486.418
514.68
512.026
486.48
485.836
513.582
511.187
436.279
412.848
400.755
439.76
414.579
402.053
433.911
410.154
397.586
438.47
412.545
399.394
427.425
403.643
390.952
437.119
409.406
395.272
348.34
336.026
329.702
379.83
361.893
352.097
404.868
382.384
369.855
423.174
397.833
384.208
438.198
407.473
391.443
350.929
336.057
328.337
386.802
366.668
355.249
412.431
386.979
372.232
431.446
400.845
383.651
443.735
408.752
389.836
392.253
382.679
398.244
388.657
426.06
409.05
437.799
417.41
366.995
344.12
368.134
345.892
368.416
346.886
370.209
348.721
369.678
365.847
368.932
363.512
350.353
353.665
392.837
395.395
423.341
426.103
372.769
376.809
372.628
374.909
356.429
359.117
322.431
305.124
327.318
307.952
324.937
305.669
329.65
308.801
329.036
306.473
335.494
310.57
338.916
313.102
340.189
314.391
364.332
354.469
371.996
357.989
390.488
379.342
398.635
382.888
350.99
337.268
343.982
334.024
376.2
359.829
377.713
360.167
403.482
384.692
404.907
384.736
354.744
339.052
356.256
339.547
331.194
308.274
320.863
303.746
325.136
305.048
318.091
301.923
334.704
310.606
322.438
304.853
336.349
312.057
322.985
305.358
307.105
297.701
299.512
293.812
309.295
300.147
299.897
294.54
313.428
305.42
300.882
296.456
344.666
367.213
328.274
316.228
300.998
361.743
339.861
322.013
310.952
298.108
366.956
344.517
327.03
313.69
299.637
290.869
285.382
288.886
284.262
293.31
287.435
289.975
285.314
298.158
291.6
292.126
287.292
350.595
337.576
329.894
318.624
314.827
305.955
304.564
297.077
294.698
289.634
354.57
339.117
333.723
320.399
318.557
307.947
307.108
298.366
296.327
290.66
338.275
321
341.589
323.417
360.278
339.83
363.29
341.559
324.705
310.594
321.803
308.34
344.195
324.893
344.718
325.389
365.221
342.485
365.549
342.9
327.178
312.105
327.703
312.544
310.406
299.584
297.894
290.85
308.861
297.987
297.19
290.23
311.676
300.702
298.33
291.135
312.902
301.279
299.059
291.812
280.265
277.79
276.813
277.616
275.71
275.06
282.173
279.285
278.122
278.507
276.44
275.67
285.806
282.286
280.798
279.978
277.423
276.443
324.606
315.546
311.109
308.415
301.821
298.776
297.869
292.689
290.465
289.911
285.374
283.385
281.182
278.026
276.788
324.291
313.308
308.203
308.48
300.07
296.32
298.26
291.648
288.815
289.803
284.663
282.614
280.79
277.675
276.481
291.68
283.561
279.032
276.444
292.82
283.951
279.135
276.439
291.747
283.605
279.075
276.479
293.203
284.122
279.251
276.52
291.72
283.63
279.205
276.604
293.471
284.266
279.44
276.665
294.435
284.68
279.473
276.611
295.127
285.046
279.592
276.651
292.724
284.092
279.426
276.704
291.32
283.742
279.384
276.838
291.398
283.586
279.308
276.753
290.568
283.412
279.272
276.845
293.748
284.523
279.524
276.697
291.897
284.018
279.488
276.883
294.469
284.871
279.661
276.774
292.323
284.246
279.612
276.975
289.825
282.956
278.911
276.507
287.707
282.273
278.752
276.601
289.843
282.975
278.95
276.547
287.891
282.345
278.786
276.631
289.959
283.036
279.039
276.636
288.399
282.532
278.873
276.69
289.853
283.049
279.115
276.75
288.813
282.701
278.98
276.776
289.705
283.072
279.174
276.866
286.081
281.784
278.501
276.757
285.178
281.544
278.407
276.783
286.438
281.908
278.559
276.793
285.565
281.679
278.461
276.811
287.092
282.14
278.645
276.841
286.232
281.917
278.546
276.857
287.906
282.442
278.796
276.923
287.018
282.212
278.668
276.922
288.704
282.786
278.979
277.011
287.718
282.522
278.807
276.997
289.766
283.363
279.21
277.119
288.732
283.115
279.108
277.164
289.297
283.098
279.096
277.062
288.267
282.838
278.96
277.08
290.126
283.584
279.289
277.164
289.122
283.365
279.229
277.237
290.451
283.781
279.394
277.234
289.47
283.581
279.346
277.312
274.891
274.051
273.569
273.315
273.207
274.891
274.052
273.57
273.315
273.208
274.909
274.058
273.572
273.316
273.208
274.914
274.062
273.574
273.317
273.209
274.932
274.067
273.575
273.318
273.209
274.939
274.072
273.578
273.319
273.21
274.966
274.085
273.584
273.322
273.211
275.003
274.103
273.592
273.326
273.214
274.961
274.079
273.581
273.32
273.21
274.988
274.087
273.583
273.321
273.211
274.951
274.073
273.578
273.319
273.21
274.976
274.08
273.58
273.32
273.21
274.984
274.091
273.586
273.323
273.212
275.011
274.097
273.588
273.324
273.212
275.02
274.108
273.594
273.326
273.214
275.042
274.112
273.595
273.327
273.214
274.895
274.05
273.568
273.315
273.207
274.901
274.05
273.568
273.314
273.207
274.909
274.055
273.57
273.316
273.208
274.912
274.054
273.569
273.315
273.207
274.932
274.064
273.574
273.317
273.208
274.931
274.061
273.572
273.316
273.208
274.955
274.072
273.577
273.318
273.209
274.952
274.069
273.576
273.318
273.209
274.967
274.076
273.579
273.319
273.21
511.153
506.751
511.28
506.972
512.104
508.043
514.371
510.421
519.091
515.108
527.281
527.55
524.723
523.599
528.413
529.244
528.777
529.504
560.44
570.283
572.379
572.859
572.964
549.673
567.309
571.696
572.709
572.928
560.587
570.326
572.39
572.862
572.964
549.987
567.406
571.716
572.716
572.929
560.886
570.404
572.409
572.866
572.965
550.493
567.542
571.749
572.723
572.931
561.546
570.558
572.444
572.874
572.967
551.43
567.773
571.801
572.734
572.933
562.708
570.804
572.497
572.885
572.97
552.986
568.124
571.876
572.75
572.937
563.893
570.988
572.53
572.891
572.971
556.517
568.862
572.026
572.78
572.944
563.543
570.937