/*--------------------------------*- C++ -*----------------------------------*\
  =========                 |
  \\      /  F ield         | OpenFOAM: The Open Source CFD Toolbox
   \\    /   O peration     | Website:  https://openfoam.org
    \\  /    A nd           | Version:  11
     \\/     M anipulation  |
\*---------------------------------------------------------------------------*/
FoamFile
{
    format      ascii;
    class       volScalarField;
    location    "5";
    object      epsilon;
}
// * * * * * * * * * * * * * * * * * * * * * * * * * * * * * * * * * * * * * //

dimensions      [0 2 -3 0 0 0 0];

internalField   nonuniform List<scalar> 
700
(
6.00777e-05
6.00777e-05
6.00777e-05
6.00777e-05
6.00777e-05
6.00777e-05
6.00777e-05
6.00777e-05
6.00777e-05
6.00777e-05
6.00777e-05
6.00777e-05
6.00777e-05
6.00777e-05
6.00777e-05
6.00777e-05
6.00777e-05
6.00777e-05
6.00777e-05
6.00777e-05
6.00777e-05
6.00777e-05
6.00777e-05
6.00777e-05
6.00777e-05
6.00777e-05
6.00777e-05
6.00777e-05
6.00777e-05
6.00777e-05
6.00777e-05
6.00777e-05
6.00777e-05
6.00777e-05
6.00777e-05
6.00777e-05
6.00777e-05
6.00777e-05
6.00777e-05
6.00777e-05
6.00777e-05
6.00777e-05
6.00777e-05
6.00777e-05
6.00777e-05
6.00777e-05
6.00777e-05
6.00777e-05
6.00777e-05
6.00777e-05
6.00777e-05
6.00777e-05
6.00777e-05
6.00777e-05
6.00777e-05
6.00777e-05
6.00777e-05
6.00777e-05
6.00777e-05
6.00777e-05
6.00777e-05
6.00777e-05
6.00777e-05
6.00777e-05
6.00777e-05
6.00777e-05
6.00777e-05
6.00777e-05
6.00777e-05
6.00777e-05
6.00791e-05
6.00786e-05
6.00781e-05
6.00778e-05
6.00777e-05
6.00777e-05
6.00777e-05
6.00776e-05
6.00774e-05
6.00771e-05
6.01177e-05
6.00997e-05
6.00863e-05
6.00803e-05
6.00785e-05
6.00781e-05
6.00778e-05
6.00761e-05
6.0071e-05
6.00624e-05
6.09212e-05
6.04749e-05
6.02174e-05
6.01169e-05
6.00881e-05
6.00821e-05
6.00761e-05
6.00508e-05
5.99704e-05
5.97653e-05
6.56149e-05
6.25887e-05
6.09182e-05
6.03162e-05
6.01302e-05
6.00698e-05
6.00205e-05
5.9948e-05
5.98516e-05
5.9837e-05
6.42182e-05
6.281e-05
6.12963e-05
6.05483e-05
6.02373e-05
6.01235e-05
6.00732e-05
6.002e-05
5.99345e-05
5.98529e-05
6.25219e-05
6.23367e-05
6.13504e-05
6.07156e-05
6.03671e-05
6.01999e-05
6.01275e-05
6.00895e-05
6.00461e-05
5.99846e-05
6.05226e-05
6.13027e-05
6.09776e-05
6.06583e-05
6.04163e-05
6.02598e-05
6.01711e-05
6.01252e-05
6.00972e-05
6.00666e-05
5.83704e-05
5.98105e-05
6.01488e-05
6.02564e-05
6.02544e-05
6.0213e-05
6.01681e-05
6.01335e-05
6.01101e-05
6.00925e-05
5.6427e-05
5.81749e-05
5.90366e-05
5.95526e-05
5.98406e-05
5.99878e-05
6.00548e-05
6.00804e-05
6.0087e-05
6.00861e-05
5.51268e-05
5.68983e-05
5.80576e-05
5.88441e-05
5.93561e-05
5.96744e-05
5.98629e-05
5.99687e-05
6.00248e-05
6.00525e-05
5.48029e-05
5.64485e-05
5.76716e-05
5.85359e-05
5.91252e-05
5.95117e-05
5.97551e-05
5.99017e-05
5.99855e-05
6.00299e-05
5.56169e-05
5.70426e-05
5.80943e-05
5.88265e-05
5.93195e-05
5.96394e-05
5.984e-05
5.99631e-05
6.00398e-05
6.00915e-05
5.77307e-05
5.85613e-05
5.91155e-05
5.94998e-05
5.97544e-05
5.99182e-05
6.0027e-05
6.01134e-05
6.02061e-05
6.03311e-05
5.97082e-05
5.96095e-05
5.97106e-05
5.98384e-05
5.9942e-05
6.0015e-05
6.00663e-05
6.01074e-05
6.01464e-05
6.01817e-05
5.99161e-05
5.99011e-05
5.9928e-05
5.99727e-05
6.00151e-05
6.00483e-05
6.0073e-05
6.00926e-05
6.01094e-05
6.01218e-05
6.002e-05
6.00177e-05
6.00248e-05
6.00386e-05
6.00535e-05
6.00663e-05
6.00766e-05
6.00848e-05
6.00914e-05
6.00957e-05
6.0062e-05
6.00612e-05
6.00625e-05
6.00658e-05
6.00702e-05
6.00743e-05
6.0078e-05
6.0081e-05
6.00834e-05
6.00848e-05
6.00756e-05
6.00751e-05
6.00749e-05
6.00752e-05
6.00761e-05
6.00771e-05
6.00782e-05
6.00792e-05
6.008e-05
6.00804e-05
6.00786e-05
6.00783e-05
6.0078e-05
6.00777e-05
6.00777e-05
6.00779e-05
6.00781e-05
6.00783e-05
6.00786e-05
6.00787e-05
6.00787e-05
6.00785e-05
6.00783e-05
6.00781e-05
6.0078e-05
6.00779e-05
6.00779e-05
6.0078e-05
6.0078e-05
6.0078e-05
6.00782e-05
6.00782e-05
6.00781e-05
6.0078e-05
6.00779e-05
6.00778e-05
6.00778e-05
6.00778e-05
6.00778e-05
6.00778e-05
6.00779e-05
6.00779e-05
6.00779e-05
6.00778e-05
6.00778e-05
6.00778e-05
6.00777e-05
6.00777e-05
6.00777e-05
6.00777e-05
6.00778e-05
6.00778e-05
6.00778e-05
6.00778e-05
6.00777e-05
6.00777e-05
6.00777e-05
6.00777e-05
6.00777e-05
6.00777e-05
6.00777e-05
6.00777e-05
6.00777e-05
6.00777e-05
6.00777e-05
6.00777e-05
6.00777e-05
6.00777e-05
6.00777e-05
6.00777e-05
6.00777e-05
6.00777e-05
6.00777e-05
6.00777e-05
6.00777e-05
6.00777e-05
6.00777e-05
6.00777e-05
6.00777e-05
6.00777e-05
6.00777e-05
6.00777e-05
6.00777e-05
6.00777e-05
6.00777e-05
6.00777e-05
6.00777e-05
6.00777e-05
6.00777e-05
6.00777e-05
6.00777e-05
6.00777e-05
6.00777e-05
6.00777e-05
6.00777e-05
6.00777e-05
6.00777e-05
6.00777e-05
6.00777e-05
6.00777e-05
6.00777e-05
6.00777e-05
6.00777e-05
6.00777e-05
6.00777e-05
6.00777e-05
6.00777e-05
6.00777e-05
6.00777e-05
6.00777e-05
6.00777e-05
6.00777e-05
6.00777e-05
6.00777e-05
6.00777e-05
6.00777e-05
6.00777e-05
6.00777e-05
6.00777e-05
6.00777e-05
6.00777e-05
6.00777e-05
6.00777e-05
6.00777e-05
6.00777e-05
6.00777e-05
6.00777e-05
6.00777e-05
6.00777e-05
6.00777e-05
6.00777e-05
6.00777e-05
6.00777e-05
6.00777e-05
6.00777e-05
6.00777e-05
6.00777e-05
6.00777e-05
6.00777e-05
6.00777e-05
6.00777e-05
6.00777e-05
6.00777e-05
6.00777e-05
6.00777e-05
6.00777e-05
6.00777e-05
6.00777e-05
6.00777e-05
6.00777e-05
6.00777e-05
6.00777e-05
6.00777e-05
6.00777e-05
6.00777e-05
6.00777e-05
6.00777e-05
6.00777e-05
6.00777e-05
6.00777e-05
6.02785e-05
6.03238e-05
6.03747e-05
6.04228e-05
6.04588e-05
6.04788e-05
6.04832e-05
6.0468e-05
6.04411e-05
6.04107e-05
6.01823e-05
6.02255e-05
6.02694e-05
6.02986e-05
6.03033e-05
6.02849e-05
6.025e-05
6.02068e-05
6.01631e-05
6.01219e-05
6.01372e-05
6.01638e-05
6.01869e-05
6.0194e-05
6.01811e-05
6.01543e-05
6.01223e-05
6.00921e-05
6.00671e-05
6.00478e-05
6.01186e-05
6.01324e-05
6.01399e-05
6.01355e-05
6.01206e-05
6.01014e-05
6.0084e-05
6.00712e-05
6.00634e-05
6.00594e-05
6.01211e-05
6.01291e-05
6.01259e-05
6.01148e-05
6.01005e-05
6.00878e-05
6.00792e-05
6.0075e-05
6.00747e-05
6.00786e-05
6.01462e-05
6.01598e-05
6.01466e-05
6.01247e-05
6.01045e-05
6.00901e-05
6.00817e-05
6.00778e-05
6.00774e-05
6.008e-05
6.02032e-05
6.0245e-05
6.0219e-05
6.01736e-05
6.01337e-05
6.01055e-05
6.00874e-05
6.00755e-05
6.00653e-05
6.00526e-05
6.03108e-05
6.04289e-05
6.03855e-05
6.02954e-05
6.02127e-05
6.01497e-05
6.01015e-05
6.00558e-05
5.99983e-05
5.99265e-05
6.05016e-05
6.07871e-05
6.07205e-05
6.0558e-05
6.04016e-05
6.02696e-05
6.01424e-05
5.99757e-05
5.97191e-05
5.94119e-05
6.07158e-05
6.14316e-05
6.14244e-05
6.1246e-05
6.10583e-05
6.08787e-05
6.06465e-05
6.02043e-05
5.92453e-05
5.72868e-05
6.01905e-05
6.01467e-05
6.01168e-05
6.01017e-05
6.00962e-05
6.00946e-05
6.00879e-05
6.00536e-05
5.99278e-05
5.95225e-05
6.01233e-05
6.01107e-05
6.00976e-05
6.00878e-05
6.00796e-05
6.00688e-05
6.00481e-05
6.00053e-05
5.99251e-05
5.98107e-05
6.00959e-05
6.00917e-05
6.00861e-05
6.00803e-05
6.00734e-05
6.00631e-05
6.00458e-05
6.00177e-05
5.99786e-05
5.9941e-05
6.00848e-05
6.00832e-05
6.00807e-05
6.00774e-05
6.0073e-05
6.00661e-05
6.00555e-05
6.00405e-05
6.00228e-05
6.00091e-05
6.00803e-05
6.00797e-05
6.00785e-05
6.00769e-05
6.00744e-05
6.00707e-05
6.00652e-05
6.00581e-05
6.00505e-05
6.00453e-05
6.00786e-05
6.00783e-05
6.00779e-05
6.00771e-05
6.00759e-05
6.00741e-05
6.00716e-05
6.00685e-05
6.00655e-05
6.00635e-05
6.0078e-05
6.00779e-05
6.00777e-05
6.00774e-05
6.00769e-05
6.00761e-05
6.00751e-05
6.00738e-05
6.00727e-05
6.00719e-05
6.00778e-05
6.00778e-05
6.00777e-05
6.00776e-05
6.00774e-05
6.00771e-05
6.00767e-05
6.00762e-05
6.00758e-05
6.00755e-05
6.00777e-05
6.00777e-05
6.00777e-05
6.00776e-05
6.00776e-05
6.00775e-05
6.00773e-05
6.00772e-05
6.0077e-05
6.00769e-05
6.00777e-05
6.00777e-05
6.00777e-05
6.00777e-05
6.00777e-05
6.00776e-05
6.00776e-05
6.00775e-05
6.00774e-05
6.00774e-05
6.00777e-05
6.00777e-05
6.00777e-05
6.00777e-05
6.00777e-05
6.00777e-05
6.00777e-05
6.00777e-05
6.00777e-05
6.00777e-05
6.00777e-05
6.00777e-05
6.00777e-05
6.00777e-05
6.00777e-05
6.00777e-05
6.00777e-05
6.00777e-05
6.00777e-05
6.00777e-05
6.00777e-05
6.00777e-05
6.00777e-05
6.00777e-05
6.00777e-05
6.00777e-05
6.00777e-05
6.00777e-05
6.00777e-05
6.00777e-05
6.00777e-05
6.00777e-05
6.00777e-05
6.00777e-05
6.00777e-05
6.00777e-05
6.00777e-05
6.00777e-05
6.00777e-05
6.00777e-05
6.00777e-05
6.00777e-05
6.00777e-05
6.00777e-05
6.00777e-05
6.00777e-05
6.00777e-05
6.00777e-05
6.00777e-05
6.00777e-05
6.00777e-05
6.00777e-05
6.00777e-05
6.00777e-05
6.00777e-05
6.00777e-05
6.00777e-05
6.00777e-05
6.00777e-05
6.00777e-05
6.00777e-05
6.00777e-05
6.00777e-05
6.00777e-05
6.00777e-05
6.00777e-05
6.00777e-05
6.00777e-05
6.00777e-05
6.00777e-05
6.00777e-05
6.00777e-05
6.00777e-05
6.00777e-05
6.00777e-05
6.00777e-05
6.00777e-05
6.00777e-05
6.00777e-05
6.00777e-05
6.00777e-05
6.00777e-05
6.00777e-05
6.00777e-05
6.00777e-05
6.00777e-05
6.00777e-05
6.00777e-05
6.00777e-05
6.00777e-05
6.00777e-05
6.00777e-05
6.00777e-05
6.00777e-05
6.00777e-05
6.00777e-05
6.00777e-05
6.00777e-05
6.00777e-05
6.00777e-05
)
;

boundaryField
{
    defaultFaces
    {
        type            empty;
    }
}


// ************************************************************************* //
