/*--------------------------------*- C++ -*----------------------------------*\
  =========                 |
  \\      /  F ield         | OpenFOAM: The Open Source CFD Toolbox
   \\    /   O peration     | Website:  https://openfoam.org
    \\  /    A nd           | Version:  11
     \\/     M anipulation  |
\*---------------------------------------------------------------------------*/
FoamFile
{
    format      ascii;
    class       volScalarField;
    location    "5";
    object      k;
}
// * * * * * * * * * * * * * * * * * * * * * * * * * * * * * * * * * * * * * //

dimensions      [0 2 -2 0 0 0 0];

internalField   nonuniform List<scalar> 
700
(
0.000306987
0.000306987
0.000306987
0.000306987
0.000306987
0.000306987
0.000306987
0.000306987
0.000306987
0.000306987
0.000306987
0.000306987
0.000306987
0.000306987
0.000306987
0.000306987
0.000306987
0.000306987
0.000306987
0.000306987
0.000306987
0.000306987
0.000306987
0.000306987
0.000306987
0.000306987
0.000306987
0.000306987
0.000306987
0.000306987
0.000306987
0.000306987
0.000306987
0.000306987
0.000306987
0.000306987
0.000306987
0.000306987
0.000306987
0.000306987
0.000306987
0.000306987
0.000306987
0.000306987
0.000306987
0.000306987
0.000306987
0.000306987
0.000306987
0.000306987
0.000306987
0.000306987
0.000306987
0.000306987
0.000306987
0.000306987
0.000306987
0.000306987
0.000306987
0.000306987
0.000306988
0.000306987
0.000306987
0.000306987
0.000306987
0.000306987
0.000306987
0.000306987
0.000306987
0.000306987
0.000306997
0.000306993
0.00030699
0.000306988
0.000306988
0.000306987
0.000306987
0.000306987
0.000306985
0.000306983
0.000307239
0.000307132
0.000307047
0.000307007
0.000306993
0.00030699
0.000306987
0.000306974
0.000306942
0.000306893
0.000311844
0.000309392
0.000307889
0.000307259
0.000307059
0.000307005
0.000306952
0.000306786
0.000306322
0.000305229
0.000336923
0.000321027
0.000311962
0.000308504
0.000307339
0.000306909
0.000306569
0.000306122
0.000305566
0.000305448
0.000329624
0.000322219
0.000314082
0.00030988
0.000308028
0.000307286
0.000306922
0.000306563
0.00030605
0.000305568
0.000320336
0.000319449
0.000314272
0.000310804
0.00030881
0.000307795
0.000307313
0.000307032
0.000306735
0.000306351
0.000309356
0.000313552
0.000311987
0.000310344
0.000309034
0.000308143
0.000307609
0.000307306
0.000307104
0.000306891
0.000297678
0.000305261
0.0003072
0.0003079
0.000307971
0.000307787
0.000307553
0.000307354
0.000307208
0.000307087
0.00028726
0.000296354
0.000300973
0.000303826
0.000305481
0.000306369
0.000306801
0.000306982
0.00030704
0.000307041
0.000280365
0.000289503
0.000295598
0.00029983
0.000302662
0.000304482
0.000305601
0.000306256
0.00030662
0.000306811
0.000278698
0.000287146
0.000293524
0.000298126
0.000301346
0.000303523
0.000304942
0.00030583
0.000306363
0.000306666
0.000283072
0.000290386
0.000295869
0.000299771
0.000302472
0.00030428
0.000305453
0.000306193
0.000306657
0.000306958
0.000294235
0.000298521
0.000301452
0.000303545
0.000304976
0.000305922
0.000306547
0.000307
0.000307406
0.000307872
0.00030462
0.000304158
0.000304745
0.000305485
0.000306097
0.000306537
0.00030684
0.000307061
0.00030724
0.000307382
0.000305875
0.000305824
0.000306005
0.000306285
0.000306552
0.000306763
0.000306916
0.000307029
0.000307113
0.000307169
0.000306543
0.000306545
0.000306604
0.000306702
0.000306805
0.000306892
0.00030696
0.00030701
0.000307047
0.000307069
0.00030684
0.000306842
0.000306859
0.000306888
0.000306923
0.000306954
0.00030698
0.000307
0.000307015
0.000307022
0.000306951
0.000306951
0.000306953
0.00030696
0.000306969
0.000306979
0.000306987
0.000306994
0.000306999
0.000307002
0.000306984
0.000306983
0.000306983
0.000306983
0.000306985
0.000306987
0.000306989
0.000306991
0.000306992
0.000306993
0.000306991
0.00030699
0.000306989
0.000306988
0.000306988
0.000306988
0.000306988
0.000306989
0.000306989
0.000306989
0.00030699
0.00030699
0.000306989
0.000306989
0.000306988
0.000306988
0.000306988
0.000306988
0.000306988
0.000306988
0.000306989
0.000306989
0.000306988
0.000306988
0.000306988
0.000306988
0.000306988
0.000306988
0.000306988
0.000306988
0.000306988
0.000306988
0.000306988
0.000306988
0.000306988
0.000306987
0.000306987
0.000306987
0.000306987
0.000306987
0.000306987
0.000306987
0.000306987
0.000306987
0.000306987
0.000306987
0.000306987
0.000306987
0.000306987
0.000306987
0.000306987
0.000306987
0.000306987
0.000306987
0.000306987
0.000306987
0.000306987
0.000306987
0.000306987
0.000306987
0.000306987
0.000306987
0.000306987
0.000306987
0.000306987
0.000306987
0.000306987
0.000306987
0.000306987
0.000306987
0.000306987
0.000306987
0.000306987
0.000306987
0.000306987
0.000306987
0.000306987
0.000306987
0.000306987
0.000306987
0.000306987
0.000306987
0.000306987
0.000306987
0.000306987
0.000306987
0.000306987
0.000306987
0.000306987
0.000306987
0.000306987
0.000306987
0.000306987
0.000306987
0.000306987
0.000306987
0.000306987
0.000306987
0.000306987
0.000306987
0.000306987
0.000306987
0.000306987
0.000306987
0.000306987
0.000306987
0.000306987
0.000306987
0.000306987
0.000306987
0.000306987
0.000306987
0.000306987
0.000306987
0.000306987
0.000306987
0.000306987
0.000306987
0.000306987
0.000306987
0.000306987
0.000306987
0.000306987
0.000306987
0.000306987
0.000306987
0.000306987
0.000306987
0.000306987
0.000306987
0.000306987
0.000306987
0.000306987
0.000306987
0.000306987
0.000306987
0.000306987
0.000306987
0.000306987
0.000306987
0.00030772
0.000307871
0.000308038
0.000308194
0.000308308
0.00030837
0.00030838
0.00030833
0.00030824
0.000308136
0.000307403
0.00030755
0.000307695
0.000307788
0.000307796
0.000307726
0.000307598
0.000307438
0.000307272
0.000307109
0.000307255
0.000307349
0.000307426
0.000307444
0.000307389
0.000307282
0.000307152
0.000307022
0.000306903
0.000306797
0.000307205
0.000307258
0.000307279
0.000307251
0.000307183
0.000307097
0.000307015
0.000306949
0.0003069
0.000306866
0.000307249
0.000307288
0.000307264
0.0003072
0.000307122
0.000307052
0.000307003
0.000306976
0.000306971
0.000306994
0.000307408
0.000307492
0.00030742
0.000307292
0.00030717
0.000307079
0.000307023
0.000306995
0.000306989
0.000307004
0.000307736
0.000307989
0.000307858
0.000307601
0.000307362
0.000307185
0.000307066
0.000306981
0.000306904
0.000306811
0.000308327
0.000309008
0.000308805
0.000308315
0.000307841
0.000307465
0.000307161
0.00030686
0.000306486
0.000306043
0.000309341
0.00031092
0.000310626
0.000309772
0.000308912
0.000308157
0.0003074
0.000306398
0.000304916
0.000303253
0.000310459
0.000314269
0.000314302
0.000313375
0.000312353
0.000311336
0.000309989
0.000307488
0.000302342
0.000292301
0.000307421
0.000307273
0.000307169
0.000307118
0.000307105
0.00030711
0.00030709
0.00030693
0.000306301
0.000304238
0.000307179
0.000307133
0.000307083
0.000307042
0.000307004
0.000306952
0.000306848
0.000306632
0.000306224
0.000305641
0.000307071
0.000307054
0.000307029
0.000307
0.000306963
0.000306908
0.000306815
0.000306668
0.000306465
0.000306271
0.000307023
0.000307015
0.000307002
0.000306984
0.000306958
0.000306918
0.000306859
0.000306777
0.000306682
0.000306609
0.000307001
0.000306998
0.000306991
0.000306981
0.000306966
0.000306943
0.00030691
0.000306869
0.000306827
0.000306798
0.000306993
0.000306991
0.000306988
0.000306983
0.000306975
0.000306963
0.000306947
0.000306929
0.000306911
0.000306899
0.000306989
0.000306988
0.000306987
0.000306985
0.000306981
0.000306976
0.000306969
0.000306961
0.000306954
0.000306949
0.000306988
0.000306988
0.000306987
0.000306986
0.000306985
0.000306982
0.00030698
0.000306977
0.000306974
0.000306972
0.000306987
0.000306987
0.000306987
0.000306987
0.000306986
0.000306985
0.000306984
0.000306983
0.000306982
0.000306982
0.000306987
0.000306987
0.000306987
0.000306987
0.000306987
0.000306986
0.000306986
0.000306986
0.000306985
0.000306985
0.000306987
0.000306987
0.000306987
0.000306987
0.000306987
0.000306987
0.000306987
0.000306987
0.000306987
0.000306987
0.000306987
0.000306987
0.000306987
0.000306987
0.000306987
0.000306987
0.000306987
0.000306987
0.000306987
0.000306987
0.000306987
0.000306987
0.000306987
0.000306987
0.000306987
0.000306987
0.000306987
0.000306987
0.000306987
0.000306987
0.000306987
0.000306987
0.000306987
0.000306987
0.000306987
0.000306987
0.000306987
0.000306987
0.000306987
0.000306987
0.000306987
0.000306987
0.000306987
0.000306987
0.000306987
0.000306987
0.000306987
0.000306987
0.000306987
0.000306987
0.000306987
0.000306987
0.000306987
0.000306987
0.000306987
0.000306987
0.000306987
0.000306987
0.000306987
0.000306987
0.000306987
0.000306987
0.000306987
0.000306987
0.000306987
0.000306987
0.000306987
0.000306987
0.000306987
0.000306987
0.000306987
0.000306987
0.000306987
0.000306987
0.000306987
0.000306987
0.000306987
0.000306987
0.000306987
0.000306987
0.000306987
0.000306987
0.000306987
0.000306987
0.000306987
0.000306987
0.000306987
0.000306987
0.000306987
0.000306987
0.000306987
0.000306987
0.000306987
0.000306987
0.000306987
0.000306987
0.000306987
0.000306987
0.000306987
0.000306987
)
;

boundaryField
{
    defaultFaces
    {
        type            empty;
    }
}


// ************************************************************************* //
