/*--------------------------------*- C++ -*----------------------------------*\
  =========                 |
  \\      /  F ield         | OpenFOAM: The Open Source CFD Toolbox
   \\    /   O peration     | Website:  https://openfoam.org
    \\  /    A nd           | Version:  11
     \\/     M anipulation  |
\*---------------------------------------------------------------------------*/
FoamFile
{
    format      ascii;
    class       volScalarField;
    location    "5";
    object      nut;
}
// * * * * * * * * * * * * * * * * * * * * * * * * * * * * * * * * * * * * * //

dimensions      [0 2 -1 0 0 0 0];

internalField   nonuniform List<scalar> 
700
(
0.000141179
0.000141179
0.000141179
0.000141179
0.000141179
0.000141179
0.000141179
0.000141179
0.000141179
0.000141179
0.000141179
0.000141179
0.000141179
0.000141179
0.000141179
0.000141179
0.000141179
0.000141179
0.000141179
0.000141179
0.000141179
0.000141179
0.000141179
0.000141179
0.000141179
0.000141179
0.000141179
0.000141179
0.000141179
0.000141179
0.000141179
0.000141179
0.000141179
0.000141179
0.000141179
0.000141179
0.000141179
0.000141179
0.000141179
0.000141179
0.000141179
0.000141179
0.000141179
0.000141179
0.000141179
0.000141179
0.000141179
0.000141179
0.000141179
0.000141179
0.000141179
0.000141179
0.000141179
0.000141179
0.000141179
0.000141179
0.000141179
0.000141179
0.000141179
0.000141179
0.000141179
0.000141179
0.000141179
0.000141179
0.000141179
0.000141179
0.000141179
0.000141179
0.000141179
0.000141179
0.000141185
0.000141183
0.000141181
0.000141179
0.000141179
0.000141179
0.000141179
0.000141179
0.000141178
0.000141177
0.000141316
0.00014126
0.000141214
0.000141191
0.000141183
0.00014118
0.000141178
0.000141171
0.000141154
0.000141129
0.000143664
0.000142458
0.00014168
0.000141337
0.000141221
0.000141185
0.00014115
0.000141057
0.000140819
0.000140296
0.000155705
0.000148193
0.00014378
0.000142013
0.000141379
0.000141126
0.000140928
0.000140688
0.000140403
0.000140329
0.000152273
0.00014877
0.000144842
0.000142734
0.000141761
0.000141346
0.000141129
0.000140924
0.000140653
0.000140402
0.000147714
0.000147334
0.000144889
0.000143191
0.000142175
0.000141635
0.000141361
0.000141193
0.000141022
0.000140812
0.000142313
0.000144338
0.000143663
0.000142902
0.000142266
0.000141815
0.000141531
0.00014136
0.00014124
0.000141117
0.000136629
0.000140219
0.000141207
0.000141598
0.000141669
0.000141597
0.000141486
0.000141386
0.000141306
0.000141236
0.000131616
0.000135871
0.000138095
0.000139506
0.000140351
0.000140822
0.000141061
0.000141168
0.000141205
0.000141209
0.00012833
0.000132571
0.000135452
0.000137496
0.000138897
0.000139823
0.000140409
0.000140763
0.000140966
0.000141076
0.000127558
0.00013146
0.000134452
0.000136653
0.00013823
0.000139323
0.000140056
0.000140529
0.000140822
0.000140996
0.000129667
0.000133044
0.000135615
0.000137483
0.000138808
0.000139719
0.000140326
0.000140717
0.000140964
0.000141119
0.000134966
0.000136957
0.000138349
0.000139371
0.000140089
0.000140574
0.000140893
0.000141106
0.000141262
0.000141397
0.00013987
0.000139677
0.00013998
0.000140359
0.000140679
0.000140912
0.00014107
0.000141177
0.00014125
0.000141298
0.000140536
0.000140524
0.000140627
0.00014078
0.000140926
0.000141042
0.000141125
0.000141182
0.00014122
0.000141243
0.000140906
0.000140913
0.000140951
0.000141008
0.000141068
0.000141118
0.000141157
0.000141184
0.000141202
0.000141211
0.00014108
0.000141084
0.000141096
0.000141116
0.000141137
0.000141157
0.000141172
0.000141183
0.000141191
0.000141195
0.00014115
0.000141151
0.000141155
0.00014116
0.000141166
0.000141173
0.000141178
0.000141182
0.000141185
0.000141186
0.000141174
0.000141174
0.000141174
0.000141175
0.000141176
0.000141178
0.000141179
0.000141181
0.000141182
0.000141182
0.00014118
0.00014118
0.000141179
0.000141179
0.000141179
0.000141179
0.00014118
0.00014118
0.00014118
0.00014118
0.00014118
0.00014118
0.00014118
0.00014118
0.000141179
0.000141179
0.000141179
0.000141179
0.000141179
0.000141179
0.00014118
0.00014118
0.00014118
0.000141179
0.000141179
0.000141179
0.000141179
0.000141179
0.000141179
0.000141179
0.000141179
0.000141179
0.000141179
0.000141179
0.000141179
0.000141179
0.000141179
0.000141179
0.000141179
0.000141179
0.000141179
0.000141179
0.000141179
0.000141179
0.000141179
0.000141179
0.000141179
0.000141179
0.000141179
0.000141179
0.000141179
0.000141179
0.000141179
0.000141179
0.000141179
0.000141179
0.000141179
0.000141179
0.000141179
0.000141179
0.000141179
0.000141179
0.000141179
0.000141179
0.000141179
0.000141179
0.000141179
0.000141179
0.000141179
0.000141179
0.000141179
0.000141179
0.000141179
0.000141179
0.000141179
0.000141179
0.000141179
0.000141179
0.000141179
0.000141179
0.000141179
0.000141179
0.000141179
0.000141179
0.000141179
0.000141179
0.000141179
0.000141179
0.000141179
0.000141179
0.000141179
0.000141179
0.000141179
0.000141179
0.000141179
0.000141179
0.000141179
0.000141179
0.000141179
0.000141179
0.000141179
0.000141179
0.000141179
0.000141179
0.000141179
0.000141179
0.000141179
0.000141179
0.000141179
0.000141179
0.000141179
0.000141179
0.000141179
0.000141179
0.000141179
0.000141179
0.000141179
0.000141179
0.000141179
0.000141179
0.000141179
0.000141179
0.000141179
0.000141179
0.000141179
0.000141179
0.000141179
0.000141179
0.000141179
0.000141179
0.000141179
0.000141179
0.000141179
0.000141179
0.000141179
0.000141179
0.000141179
0.000141179
0.000141179
0.000141179
0.000141382
0.000141413
0.000141448
0.000141478
0.000141499
0.000141508
0.000141508
0.000141497
0.000141478
0.000141454
0.000141315
0.000141349
0.000141379
0.000141396
0.000141393
0.000141371
0.000141336
0.00014129
0.00014124
0.000141187
0.000141285
0.000141309
0.000141326
0.000141325
0.000141305
0.00014127
0.000141226
0.000141177
0.000141127
0.000141074
0.000141283
0.000141299
0.000141301
0.000141286
0.000141258
0.000141224
0.00014119
0.000141159
0.000141132
0.000141111
0.000141318
0.000141335
0.00014132
0.000141287
0.000141249
0.000141215
0.00014119
0.000141175
0.000141171
0.000141183
0.000141405
0.00014145
0.000141415
0.000141349
0.000141284
0.000141234
0.000141203
0.000141186
0.000141181
0.000141189
0.000141573
0.000141707
0.000141648
0.000141518
0.000141392
0.000141296
0.000141228
0.000141179
0.000141131
0.000141076
0.000141864
0.000142212
0.000142128
0.000141889
0.000141647
0.000141449
0.000141283
0.000141114
0.000140904
0.000140666
0.000142348
0.000143129
0.000143016
0.000142612
0.000142188
0.000141804
0.000141406
0.000140877
0.000140117
0.000139309
0.000142873
0.000144695
0.000144742
0.000144309
0.00014381
0.000143297
0.000142603
0.000141342
0.000138862
0.00013423
0.000141313
0.00014128
0.000141254
0.000141242
0.000141244
0.000141252
0.00014125
0.000141183
0.0001409
0.000139955
0.000141248
0.000141236
0.00014122
0.000141205
0.00014119
0.000141167
0.000141121
0.000141022
0.000140836
0.000140569
0.000141213
0.000141207
0.000141197
0.000141184
0.000141167
0.00014114
0.000141096
0.000141026
0.000140931
0.000140841
0.000141195
0.000141192
0.000141185
0.000141176
0.000141163
0.000141143
0.000141113
0.000141073
0.000141027
0.000140992
0.000141186
0.000141184
0.000141181
0.000141175
0.000141167
0.000141155
0.000141138
0.000141117
0.000141095
0.000141081
0.000141182
0.000141181
0.000141179
0.000141176
0.000141172
0.000141165
0.000141157
0.000141147
0.000141137
0.000141131
0.00014118
0.00014118
0.000141179
0.000141177
0.000141175
0.000141172
0.000141168
0.000141164
0.00014116
0.000141157
0.000141179
0.000141179
0.000141179
0.000141178
0.000141177
0.000141176
0.000141174
0.000141173
0.000141171
0.00014117
0.000141179
0.000141179
0.000141179
0.000141179
0.000141178
0.000141178
0.000141177
0.000141176
0.000141176
0.000141175
0.000141179
0.000141179
0.000141179
0.000141179
0.000141179
0.000141178
0.000141178
0.000141178
0.000141178
0.000141178
0.000141179
0.000141179
0.000141179
0.000141179
0.000141179
0.000141179
0.000141179
0.000141179
0.000141179
0.000141179
0.000141179
0.000141179
0.000141179
0.000141179
0.000141179
0.000141179
0.000141179
0.000141179
0.000141179
0.000141179
0.000141179
0.000141179
0.000141179
0.000141179
0.000141179
0.000141179
0.000141179
0.000141179
0.000141179
0.000141179
0.000141179
0.000141179
0.000141179
0.000141179
0.000141179
0.000141179
0.000141179
0.000141179
0.000141179
0.000141179
0.000141179
0.000141179
0.000141179
0.000141179
0.000141179
0.000141179
0.000141179
0.000141179
0.000141179
0.000141179
0.000141179
0.000141179
0.000141179
0.000141179
0.000141179
0.000141179
0.000141179
0.000141179
0.000141179
0.000141179
0.000141179
0.000141179
0.000141179
0.000141179
0.000141179
0.000141179
0.000141179
0.000141179
0.000141179
0.000141179
0.000141179
0.000141179
0.000141179
0.000141179
0.000141179
0.000141179
0.000141179
0.000141179
0.000141179
0.000141179
0.000141179
0.000141179
0.000141179
0.000141179
0.000141179
0.000141179
0.000141179
0.000141179
0.000141179
0.000141179
0.000141179
0.000141179
0.000141179
0.000141179
0.000141179
0.000141179
0.000141179
0.000141179
0.000141179
0.000141179
)
;

boundaryField
{
    defaultFaces
    {
        type            empty;
    }
}


// ************************************************************************* //
