/*--------------------------------*- C++ -*----------------------------------*\
  =========                 |
  \\      /  F ield         | OpenFOAM: The Open Source CFD Toolbox
   \\    /   O peration     | Website:  https://openfoam.org
    \\  /    A nd           | Version:  11
     \\/     M anipulation  |
\*---------------------------------------------------------------------------*/
FoamFile
{
    format      ascii;
    class       volScalarField;
    location    "1.5";
    object      gradTy;
}
// * * * * * * * * * * * * * * * * * * * * * * * * * * * * * * * * * * * * * //

dimensions      [0 -1 0 1 0 0 0];

internalField   nonuniform List<scalar> 
5712
(
12237.9
7059.46
19788.6
13006.4
21627.9
16040.4
33837.1
42125.4
44549
54701.1
28863.7
25133
18321.4
14562.8
9216.06
6240.01
20379.4
20678.4
17629.9
20620.3
27527.2
24387.5
31939.3
25657.6
8586.81
6129.35
4843.7
3610.41
10223.8
8300.85
6243.14
5077.07
18897.4
19474.8
19164.2
15939.2
14742.5
11668.9
11687.1
13318
18807.7
18767.8
39707
41107.5
27950.5
28860.8
16179.1
13644.3
17494.6
12446.9
8138.31
8394.35
6780.46
9793.64
3556.21
4372.69
9272.68
13060.8
5550.68
6568.35
10192.3
17629.7
7098.6
11819.5
2692.81
6996.95
2242.03
5207.6
18145.9
22482.9
18879.6
22482.7
22136
22293.8
22699.5
22106.3
16169.9
21997.1
16484.9
21664.7
18666.9
22384
18700.6
22364
22981.4
21883.8
22953.5
21707.8
14988.1
22122.9
14497.1
22222.7
18586.1
22108
23463.7
33161.1
19704.2
25693.2
23272.4
36224.2
17614.3
19386
23541.2
31781.1
17431.6
18109.5
23793.5
31501.3
5856.65
7756.13
15017.7
26596.2
7195.58
8261.02
19185.8
29993.4
8852.66
8969.87
24109.1
33071.9
25092.1
26547.5
21602
21224.7
31560.6
26618.9
25436.9
21985.9
19326.6
36332.1
24311.7
24266.7
21938.9
22297.2
41140
2219.19
2679.62
4820.73
11312.6
3129.15
3584.58
6566.69
12503.2
4605.82
3914.38
8822.06
14103
26111.8
25379
23788.4
22990.6
20794.5
18651.6
15919.9
13900.8
11490.3
16314.5
23896
22738.5
24354.9
23645.5
21469.3
19877.9
18069.7
16071.4
12190.4
16318.6
24293.1
27254
24277.2
28008.7
23249.3
23921.3
22757.8
24194.3
22365.7
22707.8
22166.6
22014.1
24111.1
28159.7
24027.4
28164
22128.2
24546.1
21971.7
24519.6
22453.9
22656.6
22465.1
22657.2
19024.9
18070.2
12334.3
13805.4
18914.8
17623.3
12168.1
13945.9
19273.2
17997.4
12592.8
13821.1
19351.9
17811.7
12981.7
13814
1760.78
1146.86
773.756
994.669
651.51
602.3
2466.47
1396.49
1026.14
1937.3
1510.85
1268.14
2791.15
2194.95
2148.34
3382.2
2679.85
2363.15
23666.4
20766.6
18827.6
21993.1
19852
18253.5
15911.3
14368.1
13510.5
11019
9222.22
8442.09
5179.77
3664.38
3035.24
21541
19345.4
17623.9
22390.3
19779.1
17869.4
16796
13926.7
12328.1
11093.6
8525.09
7467.26
5491
3631
2842.59
27728.8
26980.8
30335.1
27072.6
31246.4
27077.3
37909.3
28650.7
21346.2
21501.3
21128.6
19494.6
23968.3
22409.7
23613.2
20062.4
23382.6
23098.6
21499.6
22869.1
28387.6
25646.8
28612.6
29111.8
31224.7
32364
23762.6
24712.5
21264.6
20670.6
25756.7
26472.2
16555.5
8974.94
15542.1
9926.62
16819
9057.19
15522.9
9869.71
16600.4
9099.93
15497.1
10283.9
15108.3
10757.8
15310.3
10666.7
21428.8
18171.4
21421.9
18217.2
23761.4
21340.5
24129.3
21211.5
20901.4
15117.3
21685.7
14859.9
21977.2
18174
22294.9
17983.1
24841.8
21089.5
24904
20841.8
20771.2
15195.6
20744.9
15109.6
13649
9136.45
11928.8
7774.03
12658.6
8184.99
11425.7
7269.16
14023
9705.42
12143.1
8011.44
14059.1
10044.8
12118
8069.39
2608.2
1370.21
4831.17
2687.74
2777.44
1668.02
5141.28
3185.53
3403.82
2495.58
5679.92
4114.46
13038.4
20328.5
9397.85
9024.26
6538.2
19810.1
13690.8
7997.62
8051.84
5399.75
20736.9
16216.6
12832.2
9981.18
6384.34
739.765
543.284
1614.52
1216.71
1024.41
693.985
2197.38
1751.36
1749.22
1308.31
3109.62
2525.25
19944.2
18981
13386
12566.5
8636.59
8481.23
7267.14
6470.68
4615.35
3757.29
18809.3
16828.8
14449.2
12419.2
11168
9657.8
8487.05
7425.87
5614
5359.41
14914.2
11796
15064.9
11586.5
18100.1
14804
18137
14700
12497.8
9873.71
12085.7
9850.41
15107.4
11450.6
15025.9
11443.5
18109
15036.5
17953.9
15011.5
12748.8
9753.91
12731.5
9884.14
9703.12
7969.3
6586.16
6675.5
9324.55
7756.8
6286.99
6302.74
10125.7
8141.71
6757.72
7056.45
10360.2
8140.96
7015.56
7156.69
1511.08
1312.45
1078.67
6440.85
3432.23
2790.55
1477.87
1437.48
1266.32
7047.03
4090.19
3445.12
2052.75
2265.99
2301.12
7888
5170.87
4568.02
17404.9
15821.1
14759.1
11701.6
11014.1
10609.4
8390.57
8043.39
7911.73
7042.52
6633.48
6380.18
9090.95
6440.72
5758.96
14932
13320.9
12283.6
10900.9
9797.97
9186.89
8881.66
7966.06
7472.72
8345.62
7198.42
6556.42
11124.7
7287.86
6454.62
4964.33
3045.83
2019.46
1483.78
5565.86
3297.17
2126.38
1522.38
4992.71
3046.18
2025.1
1493.42
5686.16
3366.06
2174.61
1549.29
4988.22
3021.98
2045.39
1505.21
5805.06
3412.45
2240.16
1575.63
6238.62
3605.75
2268.48
1605.2
6417.6
3739.99
2327.95
1652.67
5311.49
3215.25
2134.21
1534.55
4409.47
2851.88
1971.59
1470.1
4687.02
2926.87
2003.68
1446.47
4079.07
2695.87
1896.91
1417.09
5731.69
3433.36
2222.43
1589.52
4608.73
2965.94
2018.24
1510.49
5968.05
3581.96
2288.18
1635.66
4698.14
3048.03
2060.56
1540.7
3789.37
2633.51
1852.42
1412.31
2548.69
2146.4
1649.53
1327.97
3805.49
2624.92
1852.6
1410.82
2657.35
2176.55
1660.25
1335.53
3903.29
2629.76
1871.35
1425.01
2978.85
2271.77
1698.98
1367.23
3874.38
2577.57
1847.86
1456.54
3259.53
2341.14
1751.89
1368.56
3639.5
2514.58
1813.24
1397.17
1340.69
1756.69
1331.44
405.466
39.3395
1543.76
1207.09
419.524
1562.96
1831.12
1362.43
427.191
303.173
1625.61
1233.33
428.468
1984.65
1963.88
1406.71
426.078
758.238
1765.14
1270.61
433.319
2509.13
2124.65
1477.79
462.012
1257.58
1923.03
1326.54
451.933
2872.57
2275.64
1566.84
534.072
1429.1
2047.83
1379.23
468.385
3078.6
2447.56
1605.45
511.487
1222.8
2192.51
1479.09
497.913
2997
2371.76
1576.82
511.013
1166.66
2125.82
1428.19
480.518
3112.58
2501
1622.63
479.332
1190.11
2248.56
1510.6
500.85
3177.07
2555.44
1662.47
488.466
1290.39
2306.11
1548.84
512.428
1192.95
836.553
535.474
294.647
93.6666
1181.6
835.089
535.949
295.08
93.8105
1208.24
844.065
538.905
296.156
94.0952
1201.93
844.69
540.507
297.129
94.3974
1239.2
854.688
543.324
298.053
94.6317
1228.2
855.931
545.813
299.524
95.0858
1244.65
868.492
552.73
302.832
96.0552
1273.59
886.265
562.45
307.505
97.4294
1270.18
867.343
549.603
300.953
95.4716
1353.22
882.436
553.781
302.438
95.8669
1276.23
864
546.604
299.366
94.995
1351.27
876.924
550.459
300.823
95.3909
1281.23
878.354
555.788
303.931
96.3465
1378.16
893.097
559.384
305.112
96.6522
1311.19
895.653
564.923
308.278
97.6221
1409.89
908.533
567.278
308.854
97.7499
1223.99
840.634
535.401
294.296
93.5392
1283.99
845.34
535.507
294.095
93.463
1238.57
846.591
537.981
295.406
93.8521
1295.73
849.868
537.489
294.951
93.7043
1268.69
856.553
542.023
297.135
94.3399
1321.65
858.127
541.004
296.481
94.1374
1315.83
867.795
546.079
298.821
94.8125
1352.67
866.983
544.975
298.246
94.6409
1360.02
873.559
548.354
299.805
95.0909
11216.5
17368.3
11669.2
17583.4
12307.8
17818.3
12659.2
17867.2
11979.3
16971
10878.4
12294.4
10964.1
13023.9
10899.4
12119.6
11072.2
12236.7
9996.62
1716.36
367.974
82.8258
14.7089
11138.1
3177
773.553
176.075
31.254
10044.2
1694.89
360.977
80.9793
14.3462
11169.7
3148.7
764.231
173.203
30.4904
10039.2
1672.7
353.6
79.0405
13.9798
11137.8
3110.44
751.589
169.829
29.8657
9827.75
1603.84
336.341
75.0539
13.2732
10885.4
3014.99
726.511
164.004
28.8259
9198.09
1463.4
306.455
68.6448
12.1739
10193.8
2830.35
684.673
155.088
27.3106
8005.21
1324.62
286.648
65.3172
11.6816
8201.76
2394.08
595.31
137.239
24.4206
8369.55
1362.83
291.412
65.9677
11.7564
8794.24
2562.11
631.222
144.295
25.5299
7850.8
1311.42
285.064
65.1119
11.6573
7980.29
2314.16
575.873
133.193
23.7717
7800.7
1297.56
281.769
64.3775
11.5156
7962.21
2291.22
568.54
131.786
23.4828
34793.1
49635
48435.3
33701.8
19690.3
20754.4
29062.1
30440.2
22867.7
25709.3
36493.2
49993.3
46206.4
61402.3
30110.1
34405.7
23554.8
25221.6
12760
14013.1
4825.35
3113.97
677.688
495.103
561.392
482.496
611.817
4609.31
4431.25
2620.32
3629.78
3400.35
1425.95
2032.09
1793.28
1146.42
1334.06
1070.14
4183.96
2142.44
1275.11
1117.97
1477.37
1265.02
959.828
887.957
809.663
699.905
997.799
892.963
4432.85
2600.95
3008.43
1834.8
1466.98
2145.37
976.401
728.709
1085.51
9658.74
9456.05
9348.15
10152.1
16088.4
6788.41
7567.22
8036.51
8783.06
10038.8
1769.69
2499.73
3036.94
3392.96
3574.12
1305.3
1869.45
2296.61
2582
2725.37
1478.42
2112.83
2588.48
2902.32
3058.19
1274.06
1828.55
2249.45
2530.04
2670.23
1605.96
2284.44
2788.8
3121.36
3287.54
9547.89
9574.74
9178.62
9433.6
14256.5
9160.87
9026.54
8499.84
8465.77
9483.2
5936.01
6862.05
7219.34
7544.24
8027.47
7722.91
7906.05
7507.44
7290.71
7376.75
7235.27
7483.41
7100
6789.41
6712.56
3515.4
4564.27
5172.87
5532.21
5728.23
4768.74
5773.68
6216.68
6468.01
6658.81
4269.54
5265.97
5717.29
5924.98
6027.98
2894.77
3886.34
4514.08
4887.99
5072.58
3306.86
4321.55
4908.18
5233.43
5389.63
2721.02
3687.7
4311.28
4681.09
4857.93
8832.74
9154.45
9032.3
9524.66
14564
5020.58
6108.34
6692.38
7177.98
7711.19
3192.64
4240.83
4900.47
5315.24
5546.56
2832.68
3830.36
4494.32
4924.46
5161.01
3636.26
4727.74
5403.48
5867.55
6184.83
3174.68
4241.09
4945.87
5425.63
5715.59
2460.4
3386.8
4038.2
4474.68
4712.51
2291.78
3181.14
3808.31
4216.69
4427.13
2102.54
2940.8
3533.52
3908.75
4092.24
1828.99
2583.32
3132.21
3487.59
3663.32
2553.46
3497.02
4132.21
4528.36
4727.43
2303.1
3191.93
3812.29
4209.64
4410.96
9093.58
9177.5
9126.63
9848.03
15412.9
5856.14
6813.5
7392.47
8084.94
9048.26
6884.07
7858.98
8210.54
8871.43
10574.3
4408.16
5574.05
6311.53
6919.45
7447.33
3627.14
4754.99
5489.5
6024
6391.81
5034.82
6157.03
6801.01
7374.32
8002.96
2501.78
3439.46
4092.7
4524.71
4757.16
1898.86
2672.18
3233.12
3599.23
3783.29
2758.43
3747.39
4417.54
4859.32
5103.92
19358.8
12893.6
19911.9
14270
25699.2
37020.3
26917.4
36886.7
20424.8
21520.8
17571
20855.3
23046.7
21797.3
29573
24058.3
15030.7
14208.3
7364.1
6348.3
16349.8
15081.2
8441.82
6945
20271
21849.6
20674.9
18776.6
21198
13948.4
11551
13310.4
18823.3
18773.4
39326.4
41058.3
27294.1
28694.6
16891.4
13803.9
18333.9
12606.1
8911.52
8585.79
15098.8
16813.1
6304.79
6916.26
16561.8
19037.1
7841.6
8706.9
15708.1
22173.6
9104.53
14152
3164.08
7805.19
2337.91
5366.21
18913.3
21551.5
18863.8
21950.3
20427.8
20646.9
21600.8
21199.3
17380.4
21960.6
19743.5
21658.4
18549.5
22102
18647.5
22272.7
22427.1
21426.7
22792.9
21567.3
15376.4
22080.1
14569
22201.4
19627.6
23451.6
23787.2
33508.9
21425.8
27884.8
23907.9
36889.9
18098.6
20045.6
23678.8
31945.6
17559.1
18295
23825.1
31547.1
20741.8
22373.6
26225.7
39089.3
20796.4
21228.7
28031.4
39543.9
20381.7
19974.7
30090.2
39103.2
19102
19756.7
20688.5
22331.5
34126.2
18943.8
17889.3
22032.3
20334.5
39138.2
19765.5
20852.9
20960.9
23104.5
42166.5
12085.1
10969
11426
14968
13240.9
12040.2
11823.3
15350
14600.6
12549.5
12341.3
15640.3
18246.9
17351.3
17313.7
16672.2
20321.7
18794.4
16942.3
15135
12897.7
16278.8
19320.7
18897.6
20711.3
20671.9
20132.5
18811.1
18512.2
16362.5
12674.5
15694.6
22595.6
25341.5
23447.7
27000.3
21121.4
21909.9
21757.9
23217.4
21959.9
22151.7
21444.5
21116.8
23714
27682.5
23908.1
28023.9
21668.4
24080.1
21836.6
24384.8
22237.5
22377.8
22396.9
22575.2
18976.7
17878.7
12420.2
13740.1
18946
17424.7
12420.3
13862.2
19223.8
17883.9
12616.6
13780.2
19331.6
17774.8
12985
13798.7
9980.18
10139.5
4347.51
3982.98
11132.2
10743.1
4868.75
4640.8
10825.7
10075.6
5526.41
5311.63
16893.2
16230.6
16716.1
16662.6
16901.8
16246.9
12884.6
11414.6
6539.38
5343.69
18941.9
17984.3
20560.7
19564.7
16568.8
15180.8
12065.7
10224.5
5994.21
4426.39
22688.9
21434.4
28083.5
24346.8
25469.3
22546.8
35209.4
26324.8
20669.8
16914
22652.8
17840.9
20522.9
17197.5
22748
18087.9
21240.2
18672.1
19109.8
17633
21487.7
22954.3
27266.3
28707.9
30134.5
32055.9
22447
24257.5
20186.4
20364.2
24221.7
25957.7
13717.1
10124.7
14220
10368.1
14003.6
10043.5
14429.5
10230.3
13900.1
9898.86
14380.3
10441.4
14452.5
10767.7
15092.7
10662.1
17536.9
16891.6
19502.3
17428.6
20250
19302.7
22288.4
20089.9
19063.3
14811.5
17988.7
14568.3
21032.7
17756.3
22015.9
17856.9
23961.3
20529.9
24651.9
20674
19858.1
15003.3
20476.9
15049.7
13227.1
9520.58
12110.1
8138.82
12577.6
9206.07
11995.6
8048.32
13701.6
9839.23
12193
8179.64
13947.4
10074.9
12129.6
8123.37
13096.9
13069.3
9490.95
8743.85
13227.3
13183.9
9349.49
8673.52
13164.8
12677.2
9124.56
8581.69
15378.1
18295
16079.5
11915.8
8852.55
16927.5
15709
17397.9
11879.3
8546.17
18688.2
16387.6
14407.6
12034.8
7960.86
13340.1
14056.2
8582.19
9041.98
13236.4
13737.4
8518.41
8938.16
12398.3
12547.8
8188.95
8184.36
16625.9
15554.4
14857
14060.9
15249.3
15359
11813
12250.7
7975.47
7694.87
16836.3
15210.6
14971.9
13397.8
13312.6
12404.9
11208.9
10875.8
7395.83
7603.59
14682.9
12239.2
14790.5
11726.8
16850.1
14070.2
17414.2
14304.3
12658.4
10410.2
12711.8
11108.9
14928.9
11501.7
14969.7
11455.5
17748.1
14837.8
17846.5
14954.2
12763.8
9975.69
12723.1
9938.31
10174.5
8712.95
7059.86
7367.96
10426.1
9342.34
7231.92
7708.14
10308.3
8462.87
6975.79
7417.45
10410.6
8232.28
7087.93
7268.29
16229.4
16098.9
21277.2
18091.6
15669.9
15619.9
20427.1
17312.7
13822.4
14249.6
18785
16098.3
14869.9
14219.3
13431.6
13079.4
15237.7
15451
13689.6
13487.1
17241.6
14681.2
13958.1
13111.8
12448.9
12097.5
12379
12509.1
12893.4
12463.5
16692.2
13363
6364.63
3951.01
2539.13
1803.84
6590.43
4067.72
2602.8
1821.66
6261.89
3886.46
2500.22
1784.58
6539.09
4031.13
2586.92
1810.03
6075.74
3761.29
2464.4
1761.87
6466.79
3947.6
2585.94
1797.1
6620.24
3940.82
2498.47
1758.37
6544.46
3856.22
2405.8
1705.86
5876.37
3640.64
2417.3
1726.85
4797.98
3159.51
2175.59
1615.44
5587.89
3535.43
2375.48
1684.6
4717.86
3169.21
2172.06
1594
6040.3
3686.42
2399.06
1712.2
4817.55
3139.71
2144.95
1607.85
6063.34
3666.46
2348.6
1678.37
4763.83
3104.6
2103.63
1574.07
5899.87
3732.63
2430.57
1757.41
5147.85
3413.08
2285.92
1697.25
5763.5
3665.64
2395.53
1732.91
5055.17
3374.75
2264.96
1688.06
5573.87
3557.54
2360.7
1717.63
4988.13
3324.48
2242
1683.86
5162.63
3358.01
2269.35
1713.77
4828.96
3240.73
2215.51
1628.4
4591.1
3156.62
2156.9
1598.69
4068.36
3088.66
1928.51
551.006
2429.17
2883.71
1817.71
590.979
4095.91
3086.32
1931.45
570.057
2557.67
2884.89
1815.96
593.466
4149
3066.69
1910.77
546.756
2736.63
2871.05
1792.87
580.625
4101.74
3019.75
1919.97
573.864
2738.75
2829.04
1776.86
581.386
3854.29
2927.38
1924.84
640.921
2286.35
2731.7
1746.26
578.221
3384.3
2723.76
1813.21
584.785
1406.71
2488.28
1672.14
562.492
3552.65
2810.71
1862.85
602.216
1577.08
2593.43
1703.56
566.96
3265.59
2652.75
1747.56
524.754
1264.06
2409.16
1622.95
539.764
3221.68
2603.79
1703.62
503.731
1307.36
2356.24
1585.06
525.165
1411.58
960.245
600.576
325.452
102.679
1381.52
952.394
598.444
324.775
102.508
1410.48
956.839
598.208
324.219
102.307
1378.08
947.067
595.008
323.031
101.986
1423.46
954.195
595.414
322.684
101.838
1376.9
940.762
590.887
320.942
101.362
1346.54
927.294
584.12
317.78
100.438
1311.01
908.408
574.336
313.178
99.0942
1406.09
944.015
589.899
320.042
101.061
1481.59
950.629
589.179
319.156
100.759
1448.89
955.142
593.956
321.721
101.534
1516.81
958.954
592.696
320.724
101.21
1370.86
930.882
583.614
317.15
100.221
1461.26
939.236
583.526
316.55
100.002
1342.19
913.829
574.607
312.89
98.9748
1438.41
924.583
575.721
312.863
98.925
1471.9
971.87
603.135
326.16
102.847
1571.07
982.431
604.937
326.612
102.951
1474.91
969.84
601.5
325.284
102.58
1572.08
980.583
603.646
325.938
102.747
1488.05
967.251
598.891
323.882
102.155
1577.49
977.012
601.151
324.669
102.366
1520.86
966.593
596.553
322.545
101.744
1585.65
971.524
597.999
323.13
101.908
1555.46
964.557
594.888
321.69
101.487
12864.3
17021
12915.6
17011
13024.4
16971.2
12758.1
16712.6
11855.5
15820.1
10853.8
12182.1
10942.7
12762.1
10882
12068.1
11066.1
12222.1
10030.1
1680.59
356.189
79.7953
14.1431
10800.2
3078.48
747.01
169.57
30.0519
9974.48
1650.76
348.548
77.9357
13.7899
10738.6
3036.38
736.099
166.601
29.3038
9818.55
1616.58
340.319
75.9975
13.4397
10587.4
2980.81
721.716
163.176
28.7018
9498.6
1543.2
323.526
72.255
12.787
10278.8
2880.45
697.114
157.689
27.7439
8904.47
1414.54
296.35
66.4412
11.7911
9676.6
2715.16
659.463
149.683
26.3882
7924.52
1308.47
282.621
64.331
11.5
8096.52
2356.14
584.948
134.743
23.9691
8218.76
1333.88
284.708
64.416
11.4794
8570.63
2491.26
613.667
140.326
24.8376
7810.76
1303.23
282.935
64.5702
11.5551
7932.62
2296.24
570.673
131.878
23.5264
7788.6
1295.04
281.104
64.2056
11.4828
7948.34
2286.02
566.988
131.382
23.406
34366.1
49402.7
47550.5
32391.5
25144.9
30178.7
24263.2
30046.2
28367.3
45478.6
30146.2
46622.2
106.854
120.042
149.247
197.386
269.529
372.32
117.652
131.515
162.074
211.929
285.013
386.388
98.8074
94.8764
112.56
109.852
143.155
143.39
194.094
200.406
269.639
284.191
371.758
387.786
514.622
706.955
970.355
1335.71
1766.45
2077.78
521.792
696.317
913.8
1166.44
1413.3
1574.35
285.632
418.002
523.97
597.717
635.499
320.68
468.8
587.024
669.085
711.054
398.237
581.1
726.304
826.647
877.819
525.796
765.162
953.85
1083.46
1149.32
716.192
1038.19
1289.48
1460.77
1547.46
985.603
1420.51
1755.17
1981.22
2095.24
314.358
459.705
575.823
656.494
697.777
351.122
512.821
641.554
730.723
776.268
432.106
629.699
786.074
893.859
948.75
563.887
819.141
1019.49
1156.71
1226.35
756.212
1093.77
1355.88
1534.08
1624.21
1021.13
1468.13
1810.45
2041.32
2157.92
264.209
386.853
485.177
553.693
588.825
253.738
371.616
466.186
532.13
565.957
300.803
440.002
551.285
628.636
668.229
293.612
429.588
538.367
614.019
652.757
382.155
558.028
697.938
794.763
844.183
382.834
559.136
699.458
796.604
846.196
517.315
753.463
939.997
1068.31
1133.55
534.175
778.088
970.763
1103.28
1170.64
716.993
1040.44
1293.4
1466.01
1553.35
755.664
1096.44
1362.76
1544.28
1636.03
985.204
1422.14
1759.24
1986.97
2101.64
1027.89
1484.04
1835.73
2072.85
2191.97
1354.11
1934.22
2371.85
2664.73
2812.71
1842.3
2595.42
3148.61
3517.42
3707.18
2489.44
3432.35
4100.78
4552.55
4799.38
3341.44
4455.96
5212.25
5753.98
6097.81
4271.74
5453.69
6223.06
6845.41
7345.1
4916.3
6102.53
6857.73
7534.1
8161.66
1371.21
1955.14
2394.45
2688.65
2837.76
1815.35
2559.08
3106.44
3471.98
3660
2356.41
3271.54
3927.69
4368.95
4604.29
2965.78
4039.72
4788.43
5303.94
5598.22
3539.57
4726.34
5533.9
6112.04
6472.95
3905.73
5151.75
5989.33
6608.07
7018.26
108.405
124.886
157.951
210.913
289.216
399.748
119.305
136.637
171.143
225.679
304.257
411.655
100.335
96.4355
117.368
114.802
151.947
152.589
208.118
215.463
290.597
306.782
402.577
422.422
550.089
747.534
1010.27
1365.95
1782.27
2082.14
552.518
730.088
946.419
1192.74
1429.63
1579.75
289.81
424.19
531.822
606.765
645.173
333.729
488.141
611.591
697.416
741.359
421.716
615.972
770.693
877.923
932.72
562.361
819.659
1023.46
1164.1
1235.8
769.591
1118.22
1392.26
1580.36
1676.02
1060.39
1533.5
1901.46
2152.49
2280
318.812
466.313
584.225
666.19
708.152
364.936
533.335
667.663
760.88
808.556
456.598
666.152
832.572
947.663
1006.41
601.105
874.732
1090.66
1239.3
1315
808.475
1172.25
1456.88
1651.77
1750.84
1090.08
1572.46
1945.7
2199.85
2329.04
268.318
392.929
492.878
562.557
598.297
257.931
377.813
474.035
541.159
575.603
313.746
459.163
575.593
656.638
698.165
306.932
449.296
563.354
642.791
683.509
405.853
593.186
742.638
846.349
899.386
407.624
595.903
746.19
850.522
903.887
555.202
809.881
1012
1151.65
1222.89
574.863
838.698
1048.14
1192.88
1266.7
773.84
1125.64
1402.83
1593.32
1690.21
817.036
1188.65
1481.48
1682.67
1784.96
1069.25
1549.16
1923.72
2179.55
2309.38
1122.45
1627.22
2021.49
2290.7
2427.17
1451.65
2083.53
2567.57
2896.06
3063.56
1955.56
2772.52
3385.18
3801.1
4017.29
2604.04
3618.26
4356.76
4866.45
5147.11
3433.7
4615.94
5443.03
6046.91
6429.8
4326.14
5557.4
6380.24
7052.53
7587.24
4933.4
6137.77
6912.92
7608.69
8250.73
1455.67
2084.33
2563.67
2888.61
3054.57
1909.19
2704.93
3300.26
3703.55
3912.67
2448.61
3418.17
4126.46
4610.05
4869.7
3042.06
4164.99
4962.54
5519.18
5838.01
3588.56
4809.71
5652.62
6261.57
6641.75
3922.38
5180.81
6031.33
6661.6
7079.23
4809.63
3112.93
728.307
536.309
623.104
530.095
669.058
4365.86
4143.95
2619.73
3341.64
1517.14
2077.62
1243.61
1398.86
1151.91
4074.22
2182.95
1364.7
1198.63
1550.4
1330.25
1012.91
957.419
903.216
780.621
1090.26
974.074
4387.69
2606.08
2988.92
1863.42
1516
2177.67
1039.84
795.284
1157.32
9657.44
9502.66
9437.07
10295.7
16348.3
6800.35
7608.25
8109.26
8890.25
10178.3
1911.21
2721.5
3333.62
3748.9
3963.24
1418.64
2042.98
2524.06
2850.76
3016.74
1648.48
2373.99
2931.88
3309.23
3500.03
1404.76
2028.16
2510.52
2838.07
3003.91
1764.95
2531.3
3116.39
3511.94
3712.94
9481.89
10285.3
10590.9
11493.2
17377.5
9199.34
10190.6
10680.2
11506
13185.6
6157.9
7591
8505.62
9319.58
10126.8
7876.55
9281.49
9910.77
10591.8
11228.4
3840.94
5206.2
6153.62
6800.52
7165.25
5079.56
6575.18
7550.56
8258.32
8720.35
3206.55
4452.63
5346.65
5943.67
6257.39
3580.84
4922.4
5866.32
6495.65
6830.74
2988.18
4183.16
5050.64
5626.84
5923.53
8802.91
9550.88
9883.17
10804.4
16611.8
5232.55
6620.55
7542.72
8333.87
9076.47
3481.19
4767.69
5679.14
6307.38
6664.46
3078.2
4255.61
5105
5691.08
6019.18
3882.93
5197.08
6113.56
6787.2
7234.56
3376.87
4598.22
5466.16
6086.28
6461.2
2614.53
3640.42
4390.92
4909.79
5195.79
2492.16
3508.16
4259.91
4770.13
5038.77
2368.76
3367.87
4115.62
4616
4870.36
2054.4
2936
3603.38
4052.31
4280.25
2830.33
3968.07
4800.23
5359.22
5651.71
2538.66
3579.27
4349.6
4869.42
5140.52
9094.61
9330.04
9417.13
10305
16229.6
5903.7
6941.09
7608.81
8392.36
9434.44
6946.62
8146.96
8751.05
9667.01
11634.1
4514.2
5788.79
6647.97
7370.09
7977.94
3785.58
5046.06
5924.24
6586.54
7035.59
5192.68
6531.73
7426.06
8233.32
9029.23
2687.21
3746.92
4522.35
5055.82
5347.29
2086.8
2970.49
3636.18
4085.82
4316.72
2973.62
4114.27
4939.75
5512.09
5833.48
7648
7272.49
6602.83
5612.72
4163.48
1650.57
19624.6
19948.7
22469.2
23240.6
19124.1
20189.4
21394.3
20620.6
16225.5
20443.1
16860.5
20968.1
19319.6
17372.2
27396.7
18791.4
18966.9
21122.1
21634.5
18010.4
19062.7
20377.2
19832
16118.1
24688.3
16658.3
24460.4
19477.9
21228.3
29379.3
17822.4
17862.9
19381.8
19632.1
17134.7
18618.4
18993.3
18976
18431.9
21682.4
19194.3
21635.8
21111.3
23370.8
26285.4
16874.6
16935.7
17741.3
17821.9
16551.6
18274.4
17534.1
17807
17137.3
18808.9
17865.5
18269
19135.3
20801.1
22487.9
15899.2
15995.7
16582.2
16573.3
16112.6
17978.4
16528
16988
16102.5
15340.6
16854.6
14663.9
17427.5
17270.5
18342.5
15438.8
15582.1
15795.2
15751
15619.3
17130.7
15865.5
16243.5
15270.3
13041.3
15811.6
12723.3
16083.6
14975.2
16445.3
22082.2
21174.5
23304.5
24551
20321.1
20209.3
21609.2
20533.7
19323.2
14225.6
19243.1
14285.2
17046.3
15386.7
18483.3
20718.4
20057.3
21424.6
22250.5
19519.2
19583.9
20286.6
19382.3
17745.9
13635.9
17699.3
13720.2
15469.5
13749.5
16935.3
18890.3
18491.4
19136.6
19547.6
18165
18243.2
18551.8
17988.8
16630.6
13155
16395.4
12895.5
14648.6
12418.1
16368
17068.5
16833.5
17286.2
17480.4
16607.6
16621.8
17061.8
16607.7
15369.6
13204.2
15237.8
12905.8
13766.4
12244.4
16265
16011.3
15850.1
16183
16283.7
15511.3
15522.8
16109.4
15804.8
14853.9
13880.7
14763.4
13729.3
13590.2
12521.1
16446.4
15248.8
15102.3
15507.2
15575.2
14839.8
15049.5
15416.2
15268
14564.6
14297.5
14536.1
14221.2
13505.1
12877.6
16887.7
12041.3
6834.53
19780.5
13013.6
21650.1
16026.8
33866.3
42139.7
44602
54727.2
28915.9
25133.4
18329.8
14590.5
8942.07
5956.03
20382.5
20680.7
17628.3
20621.3
27540.8
24393.3
31948
25662.1
8410.93
6005.36
4680.51
3501.09
10194.5
8290.5
6241.22
5091.38
18892.2
19469.6
19162.5
15939.5
14737.9
11672
11688
13319.6
18809.4
18769.6
39714.2
41112.5
27954
28863.3
16179.9
13645.9
17496.2
12448.4
8139.49
8395.51
6658.96
9641.99
3461.25
4266.43
9274.73
13074.2
5566.05
6586.49
10193.7
17636.5
7105.23
11828
2694.27
7000.24
2242.54
5208.86
18147
22484
18881
22483.8
22138.8
22295.4
22702
22107.5
16171.9
21998.3
16485
21665.7
18668.2
22385.1
18701.7
22364.9
22983.2
21884.6
22954.6
21708.4
14989.5
22124.1
14498.2
22223.9
18588.2
22112
23465.6
33163.8
19705.8
25697.5
23274.2
36227.5
17616.3
19389
23543
31783.6
17433.5
18112
23795.2
31503.8
5766.24
7667.83
14825.8
26389
7201.54
8264.98
19202.8
30014.4
8855.38
8972.13
24116.8
33079.9
25092.1
26548.3
21601.6
21226
31565.1
26619.4
25436.7
21984.8
19327.3
36336.8
24312.6
24267.2
21939.4
22298.9
41143.9
2176.28
2647.11
4724.8
11208.6
3133.88
3589.43
6579.88
12514.5
4608.01
3915.6
8826.32
14105.6
26111.9
25379
23788.2
22990.4
20793.7
18651.2
15920.8
13901.6
11492.5
16316
23896.3
22738.6
24355.1
23645.6
21469.7
19878.3
18070.9
16072.3
12191.7
16319.6
24293.6
27254.2
24277.8
28009
23249.8
23921.3
22758.2
24194.4
22366.6
22708.4
22167.3
22014.7
24111.6
28159.9
24027.9
28164.2
22128.5
24546.1
21971.9
24519.5
22454.6
22657.1
22465.8
22657.7
19025.9
18071
12335.2
13806.2
18915.9
17624.2
12169.2
13946.8
19274.2
17998.1
12593.6
13821.8
19352.8
17812.4
12982.5
13814.7
1737.8
1129.45
759.843
990.821
646.271
596.024
2474.47
1400.59
1027.73
1944.45
1515.18
1270.4
2791.68
2195.68
2149.16
3383.18
2681.27
2364.55
23666.4
20766.9
18828
21993.4
19852.6
18254.3
15911.6
14368.9
13511.4
11019.7
9223.09
8443.07
5180.43
3665.16
3035.99
21541
19345.6
17624.3
22390.5
19779.6
17870.1
16796.4
13927.3
12328.9
11094.3
8525.74
7467.97
5491.5
3631.47
2843.01
27733.4
26982.1
30338.3
27073.8
31261.1
27083
37922.2
28655.7
21164.7
21446.3
20913.5
19427.4
23936.1
22380.3
23577.5
20033.9
23377
23093.8
21499.4
22867.2
28370
25631.2
28613.5
29112.1
31228.5
32366.2
23760.7
24711.5
21263.6
20669.6
25749
26468.6
16559.3
8979.73
15539.3
9933.31
16799.6
9052.1
15506.5
9865.76
16587.8
9095.13
15486.1
10279
15102.1
10754
15307.1
10664.3
21426.9
18171
21420.7
18216.9
23763.5
21341.4
24131.2
21212.1
20895.8
15116
21678.5
14858.2
21976.7
18173.6
22294.4
17982.6
24843.1
21089.9
24904.6
20841.9
20767.8
15194.5
20742.9
15108.7
13645.7
9133.89
11927.1
7772.69
12655
8182.46
11423.7
7267.69
14020.6
9703.27
12141.7
8010.3
14057.3
10043.1
12116.8
8068.44
2595.46
1354.61
4816.51
2669.56
2777.82
1669.01
5141.11
3186.33
3402.87
2495.38
5678.3
4113.81
13039
20329.7
9397.42
9022.62
6536.64
19810.9
13691.1
7997.48
8050.63
5398.72
20737.6
16216.5
12831.1
9979.53
6383.07
723.805
525.101
1595.43
1205.01
1025.64
693.799
2197.66
1750.86
1749.44
1308.82
3109.48
2525.54
19944.4
18980.9
13385.7
12566.1
8636.17
8480.67
7266.39
6470.31
4614.76
3757.12
18809.6
16828.8
14449
12418.9
11167.2
9657.28
8486.1
7425.34
5613.15
5358.87
14913.9
11795.7
15064.6
11586.1
18100.4
14804
18137.2
14699.9
12497
9873.1
12084.9
9849.77
15107.1
11450.3
15025.5
11443.2
18109.1
15036.4
17953.8
15011.3
12748.1
9753.36
12730.9
9883.6
9702.15
7968.64
6585.32
6674.77
9323.48
7756.12
6286.08
6302.01
10124.9
8141.09
6756.99
7055.75
10359.4
8140.4
7014.91
7156.07
1484
1290.14
1060.91
6402.36
3399.2
2759.28
1475.66
1436.49
1266.33
7044.15
4090.07
3445.3
2053.25
2266.35
2301.4
7887.91
5171.22
4568.45
17404.8
15821
14759.1
11701.2
11013.7
10609.1
8389.96
8042.87
7911.33
7042.23
6633.22
6379.95
9090.44
6440.67
5759.03
14931.9
13320.9
12283.6
10900.6
9797.71
9186.69
8881.24
7965.76
7472.49
8345.15
7198.14
6556.23
11123.7
7287.55
6454.49
4964.03
3045.31
2018.99
1483.12
5564.03
3295.17
2125.28
1521.44
4991.47
3045.68
2024.81
1493.28
5685.37
3365.74
2174.42
1549.17
4986.87
3021.46
2045.11
1505.06
5803.68
3411.96
2239.9
1575.49
6237.24
3605.24
2268.23
1605.05
6416.53
3739.54
2327.73
1652.53
5310.38
3214.75
2133.94
1534.4
4408.73
2851.45
1971.34
1469.94
4685.96
2926.38
2003.41
1446.32
4078.3
2695.43
1896.65
1416.93
5730.64
3432.87
2222.17
1589.37
4608.06
2965.54
2018
1510.33
5967.18
3581.54
2287.95
1635.51
4697.55
3047.67
2060.35
1540.56
3787.72
2633.38
1852.45
1411.85
2545.63
2145.58
1649.58
1327.36
3804.66
2624.48
1852.33
1410.68
2656.75
2176.24
1660.04
1335.45
3902.39
2629.31
1871.09
1424.87
2978.22
2271.41
1698.75
1367.11
3873.55
2577.13
1847.6
1456.38
3258.86
2340.76
1751.66
1368.41
3638.79
2514.17
1812.99
1397
1339.15
1755.95
1331.75
405.551
38.9831
1542.23
1206.62
419.339
1562.45
1830.95
1362.24
427.131
302.616
1625.58
1233.27
428.456
1984.23
1963.61
1406.53
426.01
757.979
1764.93
1270.47
433.274
2508.66
2124.32
1477.58
461.947
1257.33
1922.74
1326.37
451.875
2872.05
2275.28
1566.62
534.001
1428.84
2047.51
1379.03
468.323
3078.14
2447.21
1605.24
511.427
1222.62
2192.19
1478.89
497.85
2996.5
2371.39
1576.61
510.951
1166.45
2125.49
1427.99
480.455
3112.18
2500.68
1622.44
479.28
1189.96
2248.27
1510.42
500.792
3176.71
2555.15
1662.29
488.419
1290.26
2305.85
1548.67
512.376
1191.97
836.107
535.29
294.572
93.6456
1180.51
834.539
535.706
294.977
93.7815
1208.21
844.018
538.876
296.142
94.0912
1201.88
844.642
540.478
297.116
94.3936
1239.13
854.636
543.292
298.038
94.6273
1228.13
855.877
545.781
299.508
95.0813
1244.56
868.434
552.696
302.815
96.0501
1273.5
886.207
562.416
307.487
97.4241
1270.08
867.285
549.57
300.936
95.4667
1353.1
882.372
553.745
302.42
95.8616
1276.14
863.943
546.571
299.35
94.9903
1351.15
876.862
550.424
300.806
95.3858
1281.12
878.292
555.753
303.913
96.3411
1378.03
893.03
559.347
305.093
96.6466
1311.09
895.592
564.888
308.26
97.6166
1409.77
908.468
567.242
308.835
97.7443
1223.01
840.254
535.254
294.237
93.5229
1283.07
845.022
535.384
294.045
93.4494
1238.56
846.545
537.952
295.393
93.8482
1295.75
849.818
537.46
294.938
93.7006
1268.63
856.502
541.992
297.12
94.3355
1321.6
858.077
540.973
296.466
94.1331
1315.73
867.738
546.046
298.804
94.8078
1352.58
866.928
544.943
298.23
94.6361
1359.91
873.499
548.32
299.788
95.0859
11161.8
17306.8
11672
17585.6
12309.5
17819.3
12660.4
17868
11980.2
16971.6
10879
12295
10964.8
13024.6
10900.1
12120.2
11072.8
12237.3
9986.61
1705.34
365.085
82.156
14.5897
11122.5
3170.64
771.665
175.614
31.1689
10041.2
1695.61
361.114
81.0007
14.3488
11167.8
3147.97
763.969
173.127
30.4756
10038.5
1672.77
353.611
79.0382
13.9787
11137.3
3110.2
751.492
169.797
29.8589
9827.81
1603.86
336.339
75.051
13.2723
10885.5
3014.94
726.479
163.991
28.8228
9198.4
1463.44
306.459
68.6444
12.1736
10194
2830.38
684.67
155.084
27.3094
8005.62
1324.69
286.66
65.3197
11.682
8202.17
2394.19
595.334
137.244
24.4213
8369.94
1362.88
291.421
65.9692
11.7566
8794.62
2562.2
631.238
144.297
25.5299
7851.22
1311.49
285.079
65.1149
11.6578
7980.71
2314.28
575.901