/*--------------------------------*- C++ -*----------------------------------*\
  =========                 |
  \\      /  F ield         | OpenFOAM: The Open Source CFD Toolbox
   \\    /   O peration     | Website:  https://openfoam.org
    \\  /    A nd           | Version:  11
     \\/     M anipulation  |
\*---------------------------------------------------------------------------*/
FoamFile
{
    format      ascii;
    class       volScalarField;
    location    "1.5";
    object      gradTx;
}
// * * * * * * * * * * * * * * * * * * * * * * * * * * * * * * * * * * * * * //

dimensions      [0 -1 0 1 0 0 0];

internalField   nonuniform List<scalar> 
5712
(
-7012.2
-8963.47
-16593.4
-24280.2
-24791.9
-42758.2
-18996.5
-48350.5
-15441
-33923
-23095.1
-35157.1
-20687.9
-27188.4
-9110.19
-10432.9
-15760.3
-18077.5
-20272.6
-20108.4
-15905
-19608.3
-23398.7
-20965.6
-5742.27
-4357.98
-7133.42
-4834.06
-13336.4
-10748.8
-22700.4
-16533.3
-17557.8
-18294.8
-19594.6
-18861.8
-7010.35
-5417.64
-41384.6
-55395.3
-26770.1
-32850.5
-55443.1
-71977.4
-28688
-32850.8
-30787.7
-43474.1
-26921.7
-35640.3
-15827.1
-25430.7
-3082.55
-1043.44
-3236.81
-1170.88
-9292.89
-3765.91
-12686
-4687.36
-9112.04
-3481.9
-9572.04
-3078.31
-16252.5
-5184.7
-20950.5
-7087.07
-25271.7
-12631.6
-23137.5
-13706.8
-23546
-15245
-20720.6
-15498.9
-18330.3
-10912.8
-18375.2
-9443.04
-23883.3
-15195.7
-23944
-15316
-21899.2
-16360.1
-22165.1
-16407.6
-19780.9
-12539.8
-20483.2
-12831.7
-18797.1
-8208.24
-8755.92
-10755.4
-18869.1
-9000.19
-7699.73
-10986
-19890.9
-8144.28
-9878.37
-10783.5
-20874.6
-8330.41
-10720.5
-11236.4
-3990.14
-4370.32
-1351.83
-2702.29
-11622.7
-12307.5
-4552.53
-8227.95
-14893.5
-16473.9
-7354.56
-12582.6
-12298.7
-758.291
-14021.5
-17622.2
-9750.78
-405.463
-7239.6
-12769.9
-20749.9
-14962.1
-10430.3
-12804
-11385.7
-9991.37
-15754.3
-3779.28
-3073.5
-2176.78
-2149.38
-10592.6
-8790.72
-6504.04
-6158.78
-13148.7
-10881.6
-8489.3
-7568.79
-5727.2
-7382.65
-11970.8
-12502.3
-14533.4
-13186.3
-16429.3
-14160.4
-11490.9
-9684.13
-9253.44
-9516.39
-12278.5
-9350.04
-11307.1
-7911.42
-9903.56
-6564.2
-11798.1
-7619.38
-10432.9
-4458.87
-9048.58
-9582.08
-12782.3
-16412.1
-14097.8
-20345.9
-7264.19
-7853.93
-9288.83
-2492.22
-8098.89
-15408.7
-7700.9
-16593
-13976.4
-25167.1
-14225.8
-26791.3
-6205.77
-13367.4
-5673.04
-14317.4
-8629.29
-6316.83
-12138.2
-4642.47
-8737.2
-1244.4
-10504.3
-331.201
-8342.84
-9655.63
-12739.9
-5807.74
-6942.33
-11448.3
-11314.9
-7665.8
-2389.38
-2071.15
-1795.01
-1726.5
-1558.94
-1361.37
-7014.25
-5572.56
-4691.34
-4588.56
-3559.2
-3000.86
-8411.95
-7044.44
-6411.99
-5491.53
-4308.07
-3995.03
-6334.16
-5401.21
-5195.04
-10764.7
-7836.91
-6449.93
-10375.4
-7336.78
-5775.03
-10839.8
-8243.57
-7023.3
-7065.76
-4463.32
-3379.71
-15470.6
-12930.8
-10890.5
-10150.9
-8142.52
-6510.03
-9253.13
-6893.46
-5256.87
-7964.04
-5506.32
-4016.95
-8510.03
-4588.7
-2445.59
-10684.8
-14401.4
-8510.37
-10920
-11675.9
-17059.6
-10482.2
-15143.1
-16.9795
-708.692
522.085
-107.749
-2981.67
-3324.33
-1261.67
-680.833
-733.411
-2429.94
-9557.15
-13872.2
-6667.73
-3759.98
-10223
-10152.1
-15917.8
-17540.4
606.824
4254.92
-7725.75
-7263.53
-7347.51
-5656.89
-1017.3
-533.143
-689.995
-295.426
-1960.51
-148.252
335.612
840.654
-9263.69
-2297.87
-6344.02
-1614.67
-9187.88
-2769.74
-11107.5
-3514.28
-9079.82
-12056.8
-8361.08
-11731.9
-14754.5
-15448.6
-14041.8
-14586.9
-5662.92
-9291.64
-6561.92
-9248.73
-8854.77
-11282.2
-9748.53
-11372.1
-14618.2
-14301.7
-15290.9
-14335.6
-5704.56
-8971.7
-6191.36
-9111.02
297.445
-1112.07
-7096.97
-4164.65
832.431
-712.095
-6575.43
-3665.37
-159.606
-1380.54
-7242.38
-4546.61
-591.1
-1635.93
-7253.2
-4687.02
709.663
810.36
-145.025
19.5982
2952.2
2955.96
276.178
467.837
701.173
2041.58
-1481.71
-795.021
10227.1
9787.97
5542.07
4304.87
586.781
10674.9
10742.2
4245.73
6287.34
999.539
-10552.4
-8139.88
-7015.09
-6380.51
-3616.54
788.458
699.516
72.362
-2.56943
2505.03
2349.42
234.802
41.5256
2538.89
2924.64
-459.949
-676.872
5102.31
2158.21
7969.63
4800.53
3530.04
2567.38
4011.07
3357.99
-167.477
-960.358
-3871.39
-2427.59
-1094.68
918.749
-929.786
740.849
-1450.99
-185.204
-1637.31
-1823.78
-5167.16
-4660.5
-9826.57
-5889.35
-8197.48
-8126.6
-12420
-9989.97
-7523.7
-4338.57
-3702.97
-3615.02
-11591.4
-5079.65
-12740.6
-5693.69
-13851.2
-10200.2
-14775.4
-10956.9
-9161.96
-3508.76
-10260
-4074.11
-5641.01
-4301.8
-3995.04
-5867.01
-3565.6
-3925.99
-3379.82
-5431.65
-6545.43
-4215.29
-4526.98
-6747.13
-8026.45
-4576.35
-5809.53
-6953.47
668.954
685.444
758.112
45.4414
242.417
266.288
2426.7
2483.22
2444.11
244.298
693.21
683.494
3115.05
3333.9
3356.9
-395.891
682.979
896.455
1067.14
892.579
590.264
3329.75
3336.59
3065.89
2693.49
2959.66
2874.2
3346.35
3462.86
3323.09
-1011.14
314.374
404.843
-3534.84
-2032.09
-1114.56
773.822
1736.37
2243.95
796.279
1982.57
2489.13
390.138
1641.34
1991.48
-1828.96
422.994
682.34
29.1185
31.6012
35.1329
51.4564
242.825
126.907
99.0803
88.2514
19.9283
60.3916
137.308
196.824
394.116
229.656
249.987
245.551
-183.197
17.4735
199.066
357.717
146.013
178.456
215.945
229.963
25.5514
103.001
93.5226
86.944
-195.729
-15.2194
86.657
140.142
-827.414
-180.116
42.1561
190.383
-1274.53
-302.317
-40.3907
342.595
-557.841
-77.8556
118.148
306.811
-1039.55
-228.946
-54.1911
293.206
-888.787
-213.695
71.3538
256.629
-1433.78
-359.463
-44.8817
406.808
-991.229
-275.591
69.5026
313.231
-1545.65
-409.572
-62.6961
424.541
14.5328
19.1526
31.7444
66.2411
42.9397
28.2046
16.9384
59.8686
83.1738
67.1467
104.306
183.114
171.87
95.6928
56.9013
163.418
-329.154
-46.3602
103.857
306.641
-125.005
25.8438
67.8625
286.84
-31.0005
101.45
167.185
312.821
20.9986
84.89
55.0928
288.641
-880.739
-173.691
-20.2291
399.29
82.2098
39.7903
24.9143
47.3749
146.906
57.9998
28.147
23.0515
174.006
94.8757
50.8203
119.44
377.792
154.602
69.475
58.5725
121.592
105.912
67.9226
194.908
486.438
217.797
104.333
91.5888
-40.0923
96.5002
84.6454
271.829
401.345
235.576
122.298
114.843
-431.245
13.2162
21.0283
251.304
151.61
202.087
106.943
114.34
-1019.18
-112.619
-1.25503
285.514
-313.509
44.5091
58.5639
100.122
-770.195
-33.7428
9.80933
264.79
-160.845
115.366
85.7896
111.924
-1243.71
-203.802
-28.6368
310.378
-445.211
-21.6169
34.4722
92.5373
-1409.19
-290.179
-64.5003
304.82
-560.977
-88.8185
3.9921
79.1391
22.4366
9.18032
4.27939
2.2511
1.47736
29.4098
13.818
6.88875
3.72302
2.46735
53.5499
21.2092
9.81206
5.15936
3.38787
65.7449
30.6164
15.2632
8.26832
5.48855
71.0092
26.4869
12.0727
6.32979
4.15519
87.4683
40.2146
20.037
10.8706
7.22305
45.1652
20.3882
10.1187
5.49733
3.65893
32.6967
12.1477
5.47544
2.87247
1.89192
69.8926
26.6935
12.3795
6.55266
4.31902
33.5897
11.0763
4.84533
2.51524
1.64731
73.9581
30.8158
14.9498
8.03833
5.32361
31.8931
11.0271
4.97422
2.60688
1.7123
54.1162
17.6212
7.55588
3.89072
2.54431
31.8184
9.82984
4.19378
2.16522
1.41818
48.0709
11.7694
4.06132
1.88869
1.19263
26.6303
5.63914
1.78742
0.801587
0.50013
18.9439
7.08008
3.2015
1.66458
1.08756
13.8422
5.63357
2.66213
1.40611
0.922933
46.4117
17.6258
8.13739
4.27784
2.80831
35.8186
14.7396
7.06872
3.76264
2.47898
65.0193
21.8374
9.68795
5.03292
3.29416
48.5352
20.1977
9.80967
5.2551
3.47345
57.5783
23.9542
11.7196
6.30566
4.17346
32.9164
15.1918
7.62436
4.12984
2.73995
29.4401
12.9424
6.45734
3.49209
2.31477
-256.603
-412.624
-521.845
-990.93
-411.2
-1201.89
228.8
-872.196
923.932
176.468
-576.676
-1132.94
602.678
506.07
-1124.21
-1858.3
-1500.5
-2175.21
-711.557
-167.091
-37.926
-8.43578
-2.13204
-211.567
-103.526
-14.3173
-3.90279
-1.75945
-2184.03
-510.163
-116.189
-25.7151
-6.50821
-495.766
-139.144
-34.6567
-7.37063
-2.02864
-3652.98
-854.844
-195.236
-43.3612
-10.9523
-799.063
-238.994
-59.0687
-13.9155
-3.54203
-4864.97
-1141.69
-261.879
-58.3578
-14.7627
-927.95
-300.836
-76.7266
-18.261
-4.63273
-6021.6
-1427.14
-329.725
-73.8732
-18.7732
-1026.05
-366.857
-96.2333
-23.1783
-5.9472
-7016.61
-1713.64
-401.583
-90.8001
-23.1996
-1672.61
-520.606
-130.053
-30.1903
-7.64507
-6578.94
-1602.08
-373.768
-84.137
-21.4205
-1260.49
-435.17
-112.583
-26.7257
-6.78345
-7202.95
-1760.71
-413.358
-93.6211
-23.9628
-1919.6
-575.113
-141.281
-32.3032
-8.15402
-7488.46
-1814.34
-426.469
-96.5455
-24.6988
-2002.21
-600.699
-148.756
-31.6104
-8.43507
-538.087
-7302.35
-6665.44
-2367.45
1707.61
2895.33
8044.92
11774.4
1790.33
8633.36
-1827.22
2555.05
2521.64
5074.96
9673.91
13726.4
14622.7
18386.9
5974.49
7744.18
-20057.1
-14389.9
-4328.71
-3244.4
-2312.77
-3258.75
-3145.68
-12159.4
-11214.8
-9709.3
-10180.6
-8185.79
-5915.2
-7875.94
-5031.39
-4264.76
-5110.91
-3507.25
-19778.9
-10031
-3362.81
-5801.07
-8122.1
-5587.04
-5974.46
-4400.67
-2590.73
-3645.57
-3975.56
-4319.52
-19682.4
-12764.1
-12054.9
-8626.52
-8434.83
-8984.94
-3624.04
-4713.11
-6206.99
-13989.2
-11790.8
-9568.27
-8450.67
-6898.57
-9250.5
-6248.85
-4705.96
-3462.4
-1703.86
-3798.43
-3125.58
-2322.28
-1435.9
-488.754
-2885.33
-2402.84
-1797.8
-1111.73
-376.531
-2045.94
-1692.26
-1256.74
-772.136
-260.474
-2904.05
-2421.77
-1811.92
-1118.88
-378.263
-2779.02
-2297.28
-1707.4
-1051.15
-355.356
-7667.05
-5713.87
-4317.61
-3808.32
-3900.32
-6016.64
-4308.98
-2965.13
-2368.71
-1606.16
-6042.25
-3625.88
-2460.37
-1651.93
-762.205
-5183.49
-3428.26
-2223.18
-1559.87
-888.865
-3804.14
-2346.76
-1433.03
-957.726
-455.017
-4651.55
-3445.25
-2354.78
-1391.59
-474.279
-5354.24
-3444.05
-2233.65
-1317.47
-482.484
-3299.08
-1983.75
-1189.46
-641.763
-214.436
-3494.23
-2677.27
-1868.76
-1108.48
-371.702
-4058.73
-3011.01
-2038.14
-1179.02
-389.584
-2906.16
-2246.97
-1574.96
-932.122
-310.13
-12858.5
-9565.49
-7463.02
-6324.67
-5701.88
-7313.55
-5236.21
-3753.91
-2477.39
-1077.64
-2779.66
-2156.27
-1528.75
-922.871
-315.508
-4875.12
-3856.29
-2790.86
-1716.97
-596.729
-6594.29
-5112.6
-3701.19
-2337.27
-868.467
-4714.44
-3756.16
-2746.45
-1709.39
-599.887
-5129.62
-4146.82
-3055.51
-1897.93
-657.158
-3803.37
-3082.34
-2263.49
-1392.35
-474.816
-2222.5
-1779.18
-1284.31
-774.822
-259.674
-3193.87
-2615.86
-1927.74
-1179.89
-397.957
-3361.65
-2658.12
-1905.77
-1150.55
-388.43
-3716.98
-2995.53
-2185.88
-1336.76
-454.113
-13423.5
-10833.9
-8738.29
-7428.25
-6121.54
-8760.37
-6181.59
-4630.74
-3307.26
-1617.67
-8760.51
-6811.8
-5042.34
-3591.05
-1681.98
-6710.78
-5019.75
-3697.5
-2450.76
-974.089
-6966.05
-5497.62
-4038.26
-2572.47
-950.2
-6935.05
-5151.73
-3771.26
-2488.13
-976.38
-3084.76
-2468.52
-1801.52
-1111.58
-383.87
-4130.11
-3387.96
-2505.24
-1540.45
-521.658
-5300.35
-4256.87
-3117.44
-1927.55
-665.195
-5941.69
-12137.3
-12567.8
-34591.1
-12319.2
-46069.2
-6750.09
-16417.4
-12328.3
-9485.77
-20601
-17122.3
-12213.2
-11395.6
-23000.3
-18093.4
-4385.02
-3268.87
-8527.3
-5885.83
-9815.71
-7406.01
-26465
-19625.5
-16131.6
-12176.2
-16609.8
-9849.69
-1228.34
-4007.89
-42906.7
-56029.4
-25876.4
-32706.1
-56473.3
-72411.8
-27696.9
-32614
-32071.1
-44139
-26107.4
-35595.5
-17457.8
-26214.1
-2112.97
-559.678
-3725.49
-1273.32
-7185.79
-3227.72
-14609.4
-5288.6
-3140.63
-1796.62
-7869.88
-2481.92
-16283.8
-5127.32
-21148.6
-7141.11
-17232.7
-8986.34
-19986.2
-11854.4
-15536
-11157.6
-17578.8
-13549.3
-16103.3
-9430.2
-12702.7
-6623.02
-22671.7
-14366.9
-23642.8
-15090.3
-20648.7
-15514.1
-21830.5
-16178.3
-18969.8
-11859.8
-20293.8
-12644.6
-17746
-7894.8
-7774.45
-10352.2
-15862.8
-8090.97
-5867.03
-10234.3
-19624.7
-8068.05
-9423.83
-10589.5
-20849.4
-8325.4
-10593.5
-11181
-1213.05
-1104.64
-300.665
-1348.26
-4933.43
-5140.85
-3127.8
-6283.63
-2829.25
-3525.54
-4906.46
-9312.44
-12362.8
-9676.62
-9802.38
-12386.7
-8318
-7564.05
-8240
-7329.03
-14391.4
-12868.3
-12030.3
-10270.9
-7300.5
-6377.08
-13969.5
-1198.5
-896.362
-679.134
-763.485
-4604.5
-3636.99
-3945.6
-3480.26
-734.712
469.41
-4681.9
-3683.7
-10173.5
-10807.1
-9554.11
-8773.83
-7367.99
-5352.39
-9728.07
-7721.08
-8986.09
-7037.75
-11759
-11809.6
-10181.4
-7758.82
-7644.73
-5026.47
-6852.39
-4208.6
-10448.1
-6277.54
-9469.94
-4904.84
-8484.36
-9545
-13221.7
-17464.8
-13966.9
-20358.4
-6595.44
-7710.42
-7951.1
-2685.77
-7863.19
-15293.9
-7637.63
-16543.7
-13847.8
-25272.9
-14179.7
-26773.9
-5931.29
-13234.5
-5601.56
-14272.3
-8162
-6270.87
-11972
-4733.14
-7782.34
-1614.82
-10283.4
-1069.35
-8148.09
-9585.57
-12662.6
-5820.89
-6887.06
-11421.6
-11291.6
-7659.89
-873.97
-809.339
-611.542
-705.138
-2768.6
-2029.47
-2544.37
-2318.81
1052.34
514.19
-2974.26
-3277.57
-10658.5
-10023.9
-7816.54
-6650.17
-4266.68
-3542.01
-6071.66
-4976.44
-5928.65
-4304.79
-18311.8
-15822.1
-8137.79
-6755.66
-6333.23
-4659.7
-5348.69
-3301.23
-5833.03
-2414.06
-5641.54
-9291.24
-4909.27
-9485.49
-8596.97
-10665.9
-9698.96
-13197.7
-964.81
-670.694
-708.782
-583.408
-3598.31
-2488.19
-2887.05
-1514.57
-1218.84
-1541.2
-8310.51
-8887.33
-4575.69
-4093.95
-9543.16
-9969.12
-14951.8
-17258.6
489.861
4123.84
-7350.81
-7195.76
-7145.12
-5654.24
-1017.45
-902.633
-1102.4
-895.048
-1597.35
-995.467
-443.133
-337.454
-7968.26
-3494.71
-6764.8
-2905.49
-9300.48
-3529.56
-11153.7
-3819.05
-5338.92
-10254.5
-7025.17
-10753.8
-8842.14
-11925.3
-11726.7
-12936.9
-5104.63
-9000.08
-4572.2
-8950.68
-8274.88
-10862.5
-9573.83
-11258.7
-13627.9
-13601.6
-15005.8
-14145.8
-5509.09
-8856.06
-6139.08
-9085.13
-163.632
-1807.05
-7423.15
-4723.41
-138.987
-1864.65
-7349.6
-4516.65
-499.018
-1864.69
-7413.94
-4883.44
-729.439
-1829.52
-7302.89
-4801.81
-1013.83
-1097.68
-930.631
-983.712
-1935.12
-1952.68
-1236.3
-1306.17
-8115.8
-7365.54
-3518.42
-3466.36
-3543.28
-5040.84
-3826.46
29.5421
-1436.21
-1110.12
-1259.57
-3536.33
2810.27
-504.787
-14114
-11739.1
-10314.3
-8687.39
-5069.61
-1091.71
-963.874
-1092.24
-1319.73
-1913.81
-1486.07
-1668.8
-2200.82
-7605.5
-7378.82
-3819.72
-4853.71
-4939.23
-6639.1
-3006.3
-4936.8
-4624.62
-5021.27
-869.079
-1264.02
-2344.4
-3551.1
-9682.06
-7864.97
-7453.77
-5405.64
-6291.75
-4437.03
-5331.35
-3777.86
-3585.25
-3867.9
-8082.6
-7922.25
-10963.7
-7029.27
-10379.6
-11045.5
-13038.4
-10926.2
-8907.9
-5426.52
-6483.27
-6410.94
-12007.8
-5772.48
-12841.8
-5856.4
-13980.8
-10786.6
-14791.2
-11076.5
-9775.67
-4178.5
-10427.9
-4247.73
-6943.88
-5262.31
-5120.21
-6916.51
-5887.32
-6130.86
-5045.55
-7195.91
-7210.11
-4834.23
-5154.65
-7405.58
-8230.5
-4766.93
-6010.37
-7138.73
-754.663
-655.884
-948.302
-717.609
-1290.1
-1556.54
-1361.3
-1045.73
-7124.49
-6240.62
-3197.75
-1451.28
-7772.97
-7321.61
-5942.24
-5308.37
-4836.81
-4156.3
-1639.33
-1731.52
-3377.57
-1575.88
-8559.59
-7278
-4758.87
-3821.16
-3587.26
-2387.19
-2505.39
-1228.61
-3485.81
-91.3676
-191.468
-84.5726
-29.3038
15.2443
-167.185
-99.9257
-26.3162
16.8125
-521.027
-222.512
-2.0616
126.475
-445.322
-245.722
-5.20557
100.427
-866.438
-335.508
33.4457
291.049
-829.926
-386.964
-115.219
22.1982
-579.286
-261.952
-124.828
-38.8969
-458.074
-179.288
-11.9625
81.6026
-1319.51
-452.844
-123.247
80.6668
-1567.03
-444.488
-115.619
327.598
-1255.34
-428.984
-76.2698
186.413
-1418.43
-397.914
-138.533
290.516
-1242.17
-420.4
-47.4736
193.242
-1628.69
-460.484
-103.658
385.964
-1135.09
-362.638
18.7845
285.464
-1616.42
-447.831
-85.26
416.656
-180.041
-70.7814
-11.5493
48.6595
-154.536
-53.5633
-25.0312
44.9463
-463.246
-183.777
-13.7331
130.657
-387.337
-139.591
-62.5336
117.824
-929.947
-317.344
-16.5267
271.4
-841.746
-273.402
-80.9488
242.345
-1025.41
-362.951
-61.8596
209.375
-773.947
-254.275
-102.78
269.424
-1423.97
-394.902
-123.504
421.971
-112.172
-39.6887
-11.7253
31.0568
-52.4625
-26.6745
-10.3714
0.997864
-337.864
-115.084
-52.6158
71.1362
-171.906
-79.699
-40.0155
-3.71604
-601.417
-192.797
-81.3123
127.22
-346.715
-140.34
-62.1477
-2.06725
-915.366
-278.208
-101.485
195.209
-603.406
-207.866
-82.8582
1.50081
-1206.69
-336.786
-169.395
156.778
-809.366
-251.233
-114.739
-13.9792
-1609.13
-437.779
-184.315
193.616
-800.671
-236.661
-97.4959
5.49822
-1549.09
-426.623
-205.746
157.084
-885.112
-261.779
-111.678
-7.72363
-1595.04
-408.143
-146.349
252.831
-721.235
-194.214
-63.0379
35.7519
-1523.11
-358.5
-104.363
285.274
-645.974
-144.166
-27.7365
60.7744
-1.6587
-4.80876
-3.3289
-2.01467
-1.3932
-13.8541
-10.0709
-5.9299
-3.44003
-2.34959
-2.39282
-11.1043
-7.72408
-4.66746
-3.22456
-30.4475
-22.5594
-13.2985
-7.70187
-5.25455
2.47302
-13.3235
-9.51717
-5.7657
-3.98382
-40.728
-30.0727
-17.6308
-10.1819
-6.93859
-20.3436
-15.2763
-8.98555
-5.18537
-3.53003
-0.781139
-6.12922
-4.33076
-2.61644
-1.80379
-5.95309
-15.1342
-10.0746
-6.00244
-4.12741
5.22438
-4.81369
-3.71219
-2.27402
-1.57574
-22.8293
-21.5384
-12.9501
-7.52415
-5.13825
1.61994
-5.6851
-3.98069
-2.39528
-1.65159
10.4613
-6.74125
-5.57533
-3.46319
-2.40621
7.15526
-3.83302
-3.1452
-1.94145
-1.34632
28.2447
0.667557
-1.9324
-1.47099
-1.06943
18.4341
1.02142
-0.705491
-0.595475
-0.440201
1.78847
-3.18852
-2.39483
-1.47148
-1.02185
-2.30504
-3.32144
-2.11689
-1.2553
-0.863913
-0.650325
-9.46266
-6.46143
-3.8785
-2.67411
-9.2969
-9.70563
-5.89428
-3.44524
-2.359
11.6593
-9.79877
-7.44527
-4.5527
-3.152
-16.5865
-14.436
-8.48073
-4.9093
-3.34956
-21.2307
-17.8869
-10.418
-6.01312
-4.10143
-20.8869
-12.4915
-6.89762
-3.92988
-2.66936
-16.2545
-10.654
-5.96608
-3.41497
-2.32442
-31.1306
-196.904
-16.4622
-494.702
108.229
-668.123
471.068
-560.028
785.037
68.4107
-703.991
-1259.24
323.451
113.889
-1178.83
-1900.28
-1514.13
-2183.92
-667.149
-159.029
-36.2958
-8.09636
-2.05032
-169.805
-95.922
-13.3411
-3.72595
-1.69577
-2060.39
-486.959
-111.421
-24.721
-6.26775
-403.797
-125.522
-32.5837
-7.07952
-1.97365
-3465.85
-818.576
-187.698
-41.7811
-10.5708
-702.467
-223.741
-56.6251
-13.5041
-3.46336
-4655.94
-1099.08
-252.83
-56.4409
-14.2983
-882.01
-291.962
-75.0584
-17.9338
-4.56508
-5838.54
-1385.59
-320.45
-71.8579
-18.2783
-1054.13
-367.155
-95.7044
-22.9886
-5.89663
-6942.32
-1691.93
-396.081
-89.5149
-22.8693
-1697.53
-523.668
-130.306
-30.1786
-7.63176
-6462.67
-1569.8
-365.981
-82.3807
-20.9813
-1315.33
-440.306
-112.887
-26.6831
-6.76202
-7162.67
-1748.63
-410.19
-92.8616
-23.7634
-1926.46
-575.829
-141.287
-32.2807
-8.14453
-7475.52
-1810.45
-425.429
-96.2921
-24.6318
-2002.78
-600.626
-148.706
-31.6011
-8.43125
-506.936
-7191.35
-6316.44
-2204.74
-1594.93
-899.794
-3733.31
-2639.08
-6658.32
-6200.15
-3190.84
-2378.79
-299.155
-467.803
-818.464
-1354.77
-2073.01
-2924.78
-218.986
-480.457
-1013.88
-1795.82
-2760.56
-3789.7
-225.595
-103.853
-394.628
-268.257
-739.297
-608.098
-1257.96
-1158.76
-1847.18
-1760.42
-2485.15
-2217.02
-3714.9
-4300.19
-4792.76
-7346.65
-8389.68
-9342.04
-4702.27
-5283.49
-5361.43
-4985.44
-4350.28
-3863.09
-269.938
-228.348
-173.163
-107.968
-36.6717
-421.75
-356.404
-269.995
-168.209
-57.1092
-737.118
-622.15
-470.76
-293.035
-99.4453
-1218.35
-1026.63
-775.636
-482.297
-163.59
-1860.18
-1563.7
-1178.91
-732.068
-248.171
-2615.18
-2190.23
-1646.34
-1020.66
-345.861
-197.503
-166.974
-126.547
-78.8668
-26.781
-432.88
-365.535
-276.713
-172.303
-58.4831
-912.528
-769.648
-581.989
-362.113
-122.863
-1613.83
-1358.86
-1025.99
-637.742
-216.288
-2475.18
-2079.06
-1566.58
-972.57
-329.699
-3386.6
-2834.93
-2130.49
-1320.94
-447.696
-203.624
-172.315
-130.719
-81.526
-27.6946
-93.7489
-79.3443
-60.198
-37.5471
-12.7554
-355.943
-300.956
-228.109
-142.169
-48.2776
-242.027
-204.705
-155.204
-96.7535
-32.8593
-666.233
-562.721
-426.073
-265.343
-90.0678
-548.195
-463.209
-350.858
-218.559
-74.1971
-1132.09
-954.68
-721.751
-448.977
-152.314
-1043.08
-879.854
-665.311
-413.903
-140.417
-1658.82
-1395.5
-1052.67
-653.815
-221.643
-1581.25
-1330.42
-1003.55
-623.188
-211.221
-2223.11
-1862.36
-1399.72
-867.383
-293.782
-1983.64
-1661.6
-1248.17
-772.823
-261.569
-3302.33
-2750.13
-2059.03
-1274.76
-432.201
-3784.39
-3123.8
-2327.09
-1440.93
-490.427
-4142.46
-3371.4
-2497.16
-1553.97
-536.285
-6137.11
-4886.81
-3608.94
-2292.22
-829.019
-6608.43
-5102.54
-3777.75
-2503.91
-1005.19
-7040.5
-5325.06
-3954.33
-2706.55
-1169.41
-4181.78
-3484.3
-2610.18
-1616.7
-548.212
-4665.35
-3862.67
-2883.16
-1785.71
-606.907
-4682.83
-3843.07
-2857.46
-1773.85
-606.846
-4274.55
-3461.86
-2564.76
-1605.11
-559.124
-3599.72
-2851.29
-2107.72
-1347.78
-492.523
-3077.4
-2382.66
-1759.37
-1153.37
-444.528
-312.735
-510.745
-897.041
-1478.6
-2254.76
-3161.5
-237.413
-538.841
-1119.98
-1957.01
-2973.94
-4030.34
-238.073
-113.952
-434.847
-302.107
-815.311
-676.476
-1383.43
-1279.53
-2045.13
-1990.23
-2758.86
-2584.41
-3977.17
-4559.9
-5043.43
-7516.43
-8469.95
-9366.57
-4923.71
-5435.92
-5419.84
-4958.26
-4286.56
-3831.55
-282.278
-238.879
-181.223
-113.031
-38.3989
-460.798
-389.753
-295.541
-184.271
-62.5898
-808.664
-683.357
-517.729
-322.607
-109.545
-1331.36
-1123.58
-850.24
-529.379
-179.691
-2026.56
-1706.97
-1289.6
-802.15
-272.182
-2833.12
-2379.18
-1793.34
-1114.27
-378.037
-214.243
-181.256
-137.475
-85.7305
-29.1219
-485.964
-410.868
-311.436
-194.132
-65.9315
-1009.14
-852.313
-645.433
-402.063
-136.507
-1760.96
-1485.11
-1123.19
-699.094
-237.272
-2670.63
-2247.49
-1696.81
-1055.08
-357.981
-3608.29
-3027.27
-2280.26
-1416.38
-480.519
-214.956
-181.978
-138.108
-86.1648
-29.2762
-102.913
-87.1514
-66.1625
-41.2886
-14.0305
-392.49
-332.144
-251.979
-157.166
-53.3928
-272.77
-230.921
-175.255
-109.343
-37.1519
-735.403
-621.851
-471.413
-293.87
-99.8068
-610.403
-516.372
-391.61
-244.194
-82.947
-1246.55
-1052.84
-797.258
-496.612
-168.6
-1153.37
-974.531
-738.226
-459.946
-156.167
-1839.9
-1551.29
-1172.92
-729.883
-247.691
-1791.43
-1511.21
-1143.07
-711.444
-241.441
-2474.97
-2080.54
-1569.31
-975.265
-330.842
-2320.74
-1952.65
-1473.64
-915.874
-310.636
-3546.25
-2964.06
-2227.41
-1383.01
-469.634
-4030.26
-3343.6
-2503.35
-1556.04
-530.659
-4386.72
-3596.02
-2682.13
-1677.63
-580.334
-6322.6
-5073.41
-3775.29
-2411.81
-874.869
-6715.29
-5219.95
-3890.69
-2592.49
-1043.64
-7078.48
-5368.55
-3997.79
-2742.28
-1185.83
-4387.92
-3665.32
-2752.86
-1708.55
-579.997
-4810.71
-3993.73
-2989.16
-1855.41
-631.363
-4744.26
-3903.83
-2910.76
-1811.22
-620.531
-4259.16
-3457.52
-2568.73
-1612.12
-562.848
-3550.1
-2815.89
-2086.62
-1338.85
-491.162
-3052.18
-2363.78
-1747.28
-1147.64
-443.383
-20007.9
-14443
-4691.52
-3619.21
-2775.82
-3813.68
-3616.23
-13004.5
-14438.3
-11381.4
-13110.9
-7536.5
-10961.6
-5701.88
-5977.23
-4312.75
-20517.1
-11089.8
-4117.03
-6738.12
-8993.09
-6107.56
-6621.56
-4987.32
-3039.61
-4322.04
-4950.66
-5051.33
-19590.6
-12956.5
-12718.1
-9017.75
-8895.44
-9530.51
-4294.87
-5349.98
-6856.64
-14006.6
-11860.4
-9671.37
-8587.48
-7024.16
-9336.96
-6337.69
-4791.08
-3532.35
-1733.9
-4143.61
-3435.69
-2571.98
-1599.44
-546.008
-3232.99
-2706.79
-2036.2
-1264.53
-429.256
-2477.32
-2071.18
-1555.23
-964.041
-326.796
-3416.41
-2867.39
-2159.69
-1340.85
-454.658
-3219.83
-2686.71
-2015.74
-1250.1
-424.25
-9339.22
-7596.6
-6082.17
-5257.53
-4923.64
-10552.6
-8912.5
-7045.46
-5462.27
-3119.28
-8129.73
-5668.07
-4189.27
-2840.93
-1191.64
-9588.23
-7773.28
-5971.67
-4273.98
-2004.86
-6329.57
-5034.32
-3678.01
-2275.13
-786.365
-8540.33
-6324.75
-4563.78
-2855.41
-1028.81
-4911.16
-3978.68
-2929.36
-1807.51
-617.149
-5127.65
-4140.24
-3042.23
-1876.54
-641.304
-3749.13
-3059.03
-2259.44
-1392.58
-473.281
-14190.4
-11106.3
-8961.35
-7586.86
-6562.9
-8537.81
-6463.78
-4824.49
-3233.55
-1374.81
-3536.17
-2863.2
-2113.58
-1312.47
-453.301
-5806.39
-4723.62
-3508.79
-2197
-767.751
-7517.68
-6012.87
-4474.01
-2872.15
-1067.9
-5240.86
-4254.61
-3165.67
-1994
-702.76
-5756.48
-4719.4
-3523.48
-2208.55
-767.275
-4370.43
-3599.07
-2684.16
-1669.93
-572.44
-2673.77
-2204.72
-1639.55
-1012.65
-343.698
-3834.12
-3187.62
-2384.97
-1477.25
-501.43
-4313.35
-3529.67
-2616.1
-1618.72
-552.728
-4426.23
-3642.78
-2712.86
-1684.15
-576.116
-13554.7
-11101.1
-9086.89
-7818.69
-6503.64
-9033.13
-6462.82
-4894.62
-3516
-1710.08
-9659.8
-7746.26
-5909.42
-4256.34
-1978.79
-7154.51
-5470.51
-4100.62
-2744.1
-1086.87
-7463.13
-5992.17
-4472.21
-2879.63
-1067.18
-7558.6
-5772.26
-4323.81
-2886.99
-1132.28
-3731.35
-3055.62
-2278.02
-1425.59
-494.47
-4733.87
-3928.08
-2937.95
-1822.33
-619.865
-5943.39
-4855.5
-3613.93
-2260.34
-783.763
-438.116
-1260.71
-2031.47
-2779.73
-3502.73
-4185.47
-2778.1
-7442.17
-7012.67
-2696.98
-9417.48
-7920.98
-9330.43
-10303.6
-2531.79
-1630.25
-5885.21
-3351.54
-11077.5
-7937.1
314.649
-2244.56
-6175.47
-5728.9
-2159.74
-7969.4
-6407.45
-7775.82
-8710.32
-2093.63
-945.574
-5064.03
-1702.37
-9094.6
-4727.54
1767.64
-1625.35
-4653.38
-4292.86
-1564.35
-6236.22
-3757.86
-6234.17
-6839.98
-1568.16
-863.874
-3558.44
-1786.8
-7171.81
-1764.3
1914.23
-1180.66
-3558.26
-3338.65
-1175.18
-4706.45
-2205.73
-5107.87
-5947.18
-1167.87
-914.286
-2584.27
-1822.38
-6241.02
-264.112
1441.85
-941.832
-2983.55
-2839.29
-977.382
-3724.7
-1797.87
-4529.1
-5728.53
-913.257
-1004.68
-1830.39
-1762.14
-5408.1
-55.9209
201.693
-823.844
-2633.71
-2584.84
-876.96
-3420.45
-2085.14
-4160.42
-5455.86
-695.79
-788.671
-1484.34
-1718.93
-5328.49
-947.29
-493.214
-1399.14
-3410.51
-5100.9
-1977.68
-5513.67
-9674.26
-7443.04
-10704.5
-986.844
-671.1
-3841.55
-2286.93
-1059.64
-9128.16
-4690.43
-1297.95
-3170.21
-4463.67
-1711.67
-5079.1
-8711.32
-6689.3
-9065.08
-1005.93
-583.126
-3963.91
-2140.48
-238.739
-8919.11
-3458.49
-1134.26
-2779.97
-3628.34
-1364.44
-4598.52
-7719.22
-5651.29
-7902.78
-884.665
-668.513
-3355.95
-2214.13
-476.085
-7121.86
-3268.93
-971.699
-2487.89
-2979.99
-1096.32
-4259.22
-6936.62
-4987.5
-7112.03
-803.082
-667.809
-3070.14
-2276.22
-321.885
-6541.57
-3253.05
-871.538
-2225.39
-2624.19
-950.4
-3837.72
-6313.47
-4517.18
-6718.5
-745.676
-720.753
-2763.49
-2453.98
-490.185
-6227.87
-3296.47
-805.383
-1977.13
-2420.3
-869.165
-3528.23
-6216.91
-4173.09
-6475.8
-772.166
-841.788
-2451.71
-2336.4
-756.213
-6363.01
-3658.52
6376.29
8051.52
16631.5
24361.1
24824.3
42742.8
19005.5
48353.6
15454.7
33929.1
23142.4
35159.6
20704.1
27275.4
7831.83
8895.3
15773.5
18080.6
20267.5
20105.8
15906.7
19606.2
23395.9
20962.6
5295.98
4055.68
6490.56
4413.14
13338.2
10720.2
22753.3
16558
17533.3
18299.6
19586.2
18862.6
7008.75
5395.23
41390.4
55402.6
26770.7
32852.6
55450.2
71985.8
28687.9
32851.9
30792
43480.4
26921.2
35643.3
15833.2
25436.4
2907.63
1000.98
2974.64
1088.17
9262.73
3751.27
12691.8
4688.7
9106.27
3478.48
9558.65
3073.08
16253.4
5184.72
20953.6
7088.08
25271.4
12630.6
23135.9
13705.5
23543.2
15242.7
20718
15496.9
18327.7
10911.5
18374.5
9441.93
23882.7
15194.7
23944
15315.1
21897.8
16358.6
22164.2
16406.4
19780.4
12539
20483.7
12831.1
18793.3
8206.95
8754.62
10755.3
18866.2
8998.93
7698.24
10985.7
19890.8
8144.31
9877.8
10783.6
20875.9
8330.97
10720.2
11236.7
3751.09
4062.57
1298.47
2539.65
11569.1
12262.2
4527.12
8190.53
14884.4
16464.3
7350.32
12575.5
12298.8
759.174
14020.6
17618.6
9749.15
406.423
7239.85
12769.1
20745.7
14959.5
10428.9
12802.9
11384.4
9989.15
15753.5
3444.75
2771.48
1959.77
1962.5
10622.7
8817.18
6566.2
6198.09
13141
10878.7
8486.21
7568.01
5727.37
7382.56
11970.6
12502
14532.2
13185.3
16425.5
14158.4
11489.6
9683.97
9252.78
9516.08
12277.8
9349.78
11306.1
7910.97
9902.06
6563.58
11797.9
7619.51
10432.2
4458.77
9047.7
9581.81
12781.2
16411.4
14096.4
20345
7263.53
7853.86
9288.2
2492.17
8098.08
15408.4
7700.12
16592.8
13975.2
25166.2
14224.7
26790.5
6205.23
13367.5
5672.54
14317.5
8629.03
6316.91
12138.6
4642.7
8736.65
1244.42
10504.6
331.478
8342.77
9655.82
12740.5
5807.98
6942.23
11448.6
11315.3
7666.11
2116.95
1852.44
1632.22
1574.31
1433.34
1265.37
7047.86
5585.6
4692.26
4623.35
3574.79
3004.33
8412.43
7045.7
6413.02
5492.63
4310.64
3997.56
6334.17
5401.38
5195.25
10764.5
7837.12
6450.23
10375.1
7337.06
5775.46
10839.6
8244.37
7024.24
7066.23
4464.52
3381.05
15470.4
12931
10890.9
10150.7
8142.59
6510.27
9252.97
6893.59
5257.18
7963.9
5506.53
4017.35
8510.13
4589.02
2446.05
10658.4
14384.7
8481.43
10905.4
11663.5
17050.3
10467.3
15134.8
59.2327
615.907
-435.924
65.4414
2980.76
3398.47
1262.02
760.808
707.491
2403.79
9540.38
13851.5
6650.17
3746.63
10215.6
10148.9
15913.5
17538.5
-612.87
-4256.86
7716.1
7259.04
7341.93
5654.76
888.24
484.296
585.188
256.777
2015.95
159.529
-275.007
-824.408
9252.57
2296.41
6337.26
1614.72
9180.99
2768.11
11103.9
3513.14
9069.65
12051.6
8353.08
11727.7
14747.5
15444.5
14036.3
14583.6
5655.67
9287.75
6553.03
9244.08
8849.88
11279.3
9745.85
11370.1
14614.7
14299.3
15288.9
14333.8
5700.03
8968.91
6188.97
9109.13
-301.307
1111.55
7094.17
4163.58
-836.877
711.415
6572.38
3664.3
156.645
1379.81
7240.18
4545.62
589.517
1635.41
7251.68
4686.26
-673.054
-763.303
132.053
-24.8473
-2927.24
-2930.45
-271.849
-457.919
-699.752
-2040.01
1481.39
794.928
-10227.1
-9787.11
-5542.34
-4305.01
-586.828
-10673.7
-10740.9
-4245.64
-6286.03
-999.351
10550.3
8136.72
7011.96
6378.02
3615.53
-752.633
-663.526
-87.3199
-16.3429
-2478.5
-2327.51
-214.788
-23.5777
-2537.27
-2922.41
459.881
676.554
-5102.08
-2158.22
-7969.31
-4800.46
-3530.31
-2567.44
-4010.48
-3357.2
167.313
960.04
3870.4
2427.22
1093.27
-919.148
928.551
-741.143
1450.18
185.051
1636.83
1823.37
5164.95
4659.45
9824.24
5888.14
8195.71
8125.67
12418
9988.84
7521.56
4337.49
3701.02
3614.05
11589.5
5078.59
12739.1
5692.8
13849.6
10199.2
14774
10956
9160.18
3507.85
10258.6
4073.36
5639.42
4300.87
3994.1
5866.08
3564.14
3925.13
3378.96
5430.76
6544.07
4214.43
4526.11
6746.18
8025.29
4575.62
5808.73
6952.63
-636.632
-639.152
-705.626
-63.0319
-238.902
-258.453
-2404.82
-2471.08
-2435.72
-224.297
-682.412
-676.094
-3112.61
-3331.77
-3355.4
395.066
-682.583
-896.166
-1067.1
-892.471
-590.158
-3329.7
-3336.42
-3065.72
-2693.31
-2959.34
-2873.91
-3345.42
-3461.83
-3322.22
1010.67
-314.33
-404.708
3534.59
2032.14
1114.73
-773.978
-1736.24
-2243.74
-796.344
-1982.34
-2488.85
-390.079
-1641.01
-1991.12
1828.55
-423.007
-682.272
-24.4158
-27.8021
-31.3547
-46.0682
-226.124
-117.62
-91.8503
-81.342
-19.4933
-60.2147
-137.557
-197.677
-389.871
-228.09
-248.772
-244.724
183.306
-17.3479
-198.908
-357.515
-145.354
-178.157
-215.764
-229.812
-25.5535
-102.953
-93.4763
-86.897
195.685
15.2375
-86.6282
-140.11
827.404
180.212
-42.0576
-190.275
1274.33
302.332
40.4451
-342.498
557.783
77.9441
-118.03
-306.655
1039.38
228.974
54.2502
-293.101