/*--------------------------------*- C++ -*----------------------------------*\
  =========                 |
  \\      /  F ield         | OpenFOAM: The Open Source CFD Toolbox
   \\    /   O peration     | Website:  https://openfoam.org
    \\  /    A nd           | Version:  11
     \\/     M anipulation  |
\*---------------------------------------------------------------------------*/
FoamFile
{
    format      ascii;
    class       volScalarField;
    location    "1.5";
    object      gradTz;
}
// * * * * * * * * * * * * * * * * * * * * * * * * * * * * * * * * * * * * * //

dimensions      [0 -1 0 1 0 0 0];

internalField   nonuniform List<scalar> 
5712
(
7703.11
25278.5
6128.86
25910.6
4584.58
26739.6
7198.48
41033.9
8837.98
56368.4
8794.79
41166.1
8506.02
34230.2
8843.13
30620.9
5350.76
3348.36
14316.7
8541.84
5219.94
2825.72
15579.4
7741.79
5894.28
4325.46
18873.2
13411.6
4460.67
3264.35
18556.1
13605.7
10476.2
4452.97
9086.53
4075.39
4221.63
9830.98
35795.2
9665.1
12842.6
4285.13
45917.5
12409.7
11942.6
4048.83
25685.1
7948.15
13199.4
4570.92
22441.4
7116.01
6765.86
3355.08
9586.1
3764.83
7331.4
3954.86
9330.56
3614
9196.18
5261.74
8044.17
3530.68
11718.6
4238.93
4015.63
1410.42
13352.1
9362.23
8180.55
6030.7
14589.5
12036.4
7933.83
6865.99
7876.66
5415.38
11284
7695.78
5333.99
3941.93
2639.61
2174.14
5061.45
4370.67
2535.65
2459.45
5195.34
3455.45
2604.95
1686.01
7127.04
3901.68
5430.16
6469.85
9895.49
7056.99
7977.74
11164.7
4657.54
2225.22
3169.69
3675.22
2271.31
954.86
1342.36
1351.86
9152.66
16356.5
6165.06
18205.6
10653
15975
7546.94
18981.8
12003.4
14398.4
9641.22
18397.9
13468.6
15599.5
10541.4
10272.1
11132.6
15642.9
14942.9
15109.5
15725.4
22462.5
12731.1
10181.4
9085.86
10229.3
15745
19033.6
17088.9
22012.2
21306.9
17433.4
16232.7
21687
20818.9
15067.1
14777.6
20269.8
20005.4
11504.9
9138.05
11171.8
9897.17
12417.9
11359
13545
13219.3
18513.3
19192.2
10714.1
9455.49
10587.7
10508.8
11161.8
12189.9
12666.6
14569.5
16449.1
19413.6
8954.24
7055.08
6081.62
7659.15
11769.4
14171.7
8097.09
12699.5
5278.92
6842.26
7947.45
6596.93
1525.16
5049.18
726.719
1777.93
4104.27
8469.11
1456.04
2888.36
828.275
4366.44
400.975
1506.23
5251.55
5317.76
5980.8
3806.75
8374.57
6780.92
9846.33
6928.96
1328.23
2909.86
2978.32
1752.97
1610.21
2069.82
2262.23
1716.31
13718.9
8385.16
2664.4
15477.9
8948.49
2940.9
13172.3
8299.93
2824
15205.6
8953.85
2939.77
12113.5
7634.4
2522.49
14794.2
8976.09
3007.31
6161.83
3472.23
984.94
8134.55
5399.06
1867
9872.97
6807.58
2348.96
11522.7
7514.38
2505.08
14616.7
9191.27
3209.99
7203.57
4191.34
1377.25
7818.6
5663.17
2148.38
9427.58
6962.17
2574.2
11719.5
8253.51
2970.15
14808.5
9338.85
3333.08
293.863
2038.27
2873.93
4154.78
2275.79
2593.87
5691.44
5381.84
602.511
1010.32
643.023
1051.68
477.694
1393.24
858.204
1827.61
3186.54
1560.99
4052.31
2352.65
2132.7
3712.54
3410.51
789.15
6282.37
1420.55
-2126.34
498.835
1677.45
1160.25
1093.66
915.202
9592.63
4237.6
2609.05
1568.34
9744.88
4395.05
3296.65
1988.77
9622.23
4715.52
4747.42
3224.01
3373.75
2356.85
1518.84
1449.11
12816.6
11344.9
5992.49
6196.41
14054.5
13152.2
6903.3
6936.25
5206.94
5336.34
10815.1
8966.1
3511.95
3686.49
1869.52
2178.28
4197.47
4170.29
2215.19
2402.93
2976.24
3234.74
1572.9
2023.58
4538.4
3047.03
4490.38
3039.77
7134.25
4018.05
6731.36
4222.4
2665.85
2180.62
2812.05
1941.34
1397.59
1313.85
1755.2
1116.82
11215.9
7472.37
5447.1
5320.56
11182.2
7714.97
5467.87
5298.3
11677
8158.16
5546.35
5179.02
14065
15484.5
12589.2
8228.83
4450.73
14683.4
13266.6
12042.1
9694.72
5924.36
13737.9
12162.4
9520.25
7138.82
4232.15
6035.9
5140.32
5463.39
5997.02
6333.62
5145.73
5567.83
5977.34
6791.57
5302.9
5705.32
5996.34
11075.8
7866.27
10040.1
6956.54
7673.52
6106.38
6949.25
5797.87
5349.01
6023.9
9217.56
8026.93
7939.01
6891.77
6579.93
5886.76
5585.51
5418.08
4181.52
5717.52
7089.66
4809.94
4692.35
2852.68
9473.92
7316.27
6548.11
5316.86
3725.04
2236.91
5421.92
3965.59
4683.23
2228.24
1655.15
944.926
5058.18
3684.53
1704.3
1418.83
3964.8
1753.42
1510.63
780.767
2960.14
2651.61
2451.26
3517.43
4136.01
3798.52
3115.7
4472.72
3031.15
1897.55
1798.64
2408.18
865.746
400.076
110.865
399.595
3495.16
1463.42
433.072
3925.86
1032.58
276.436
3605.66
1608.13
494.879
3960.14
1087.31
305.739
3498.28
1656.47
434.661
3962.01
1128.9
269.193
4943.32
2585.54
622.185
4239.86
2090.11
518.008
3937.57
1907.62
526.316
3710.15
1745.3
385.988
4009.81
1130.8
178.602
6138.6
3165.29
887.12
5281.03
2648.55
742.029
4594.11
2278.55
668.141
4144.24
1796.2
453.242
4363.67
1074.13
266.713
1600.36
561.693
124.41
-119.872
667.865
245.714
69.9854
-20.1791
1690.73
611.756
166.827
-65.9928
844.738
335.957
160.576
72.4412
1806.16
674.236
243.155
21.8352
1425.72
629.211
222.953
43.1749
1059.88
558.056
157.613
-30.2427
950.879
583.366
301.738
161.057
1471.44
624.039
174.611
-127.746
1241.61
519.293
217.498
-117.36
1750.59
658.601
215.152
-71.9261
1566.42
590.752
233.88
-189.018
1158.27
562.156
200.829
-46.0729
937.23
445.241
223.34
1.45211
826.222
474.322
255.685
142.686
626.666
361.208
223.953
120.188
2014.67
676.904
134.019
-244.477
1954.45
619.418
192.919
-327.837
2011.02
684.582
148.067
-233.785
1895.28
602.1
197.717
-319.118
1970.04
683.56
211.891
-154.692
1774.28
568.954
233.262
-253.451
1726.28
627.888
275.886
10.3524
1945.9
634.121
317.878
-292.813
1526.35
555.4
268.881
-62.1497
1514.62
432.987
167.307
-212.896
595.103
156.691
44.8033
-39.8647
1576.57
463.3
181.542
-202.158
625.19
169.915
55.145
-29.5756
1623.44
497.453
216.046
-173.744
645.598
185.228
67.8539
-17.6304
1471.92
468.181
243.257
-131.736
633.57
191.441
90.5868
3.6597
1352.32
462.713
254.013
-68.7124
574.304
201.067
119.309
31.4622
924.912
358.421
166.205
-23.7887
535.015
250.664
140.379
68.6869
1078.88
373.649
185.449
-53.5904
546.853
224.556
131.23
51.1135
733.703
335.041
169.572
22.5614
467.735
253.605
144.951
85.5392
503.312
291.238
182.29
102.894
375.8
241.743
154.226
107.65
-10.5757
3.87656
3.71708
2.34309
1.62073
-1.44447
2.66626
2.07611
1.26777
0.870345
5.93675
11.7372
7.69304
4.51382
3.0675
16.4854
11.6344
6.71482
3.82039
2.57541
23.0142
20.913
12.5089
7.18192
4.85381
64.1567
39.0475
21.5627
12.1257
8.15316
74.9633
45.3586
25.1121
14.1685
9.5469
109.449
59.9955
32.2624
18.0687
12.1623
38.7082
30.4191
17.6677
10.0874
6.81929
41.9735
28.7066
16.2334
9.21909
6.22488
26.8548
24.2438
14.2406
8.13198
5.48975
51.3932
30.2639
16.3494
9.14473
6.13729
50.0832
35.99
20.6862
11.8029
7.9825
56.5738
34.2432
18.9481
10.7073
7.22608
86.763
48.2082
26.004
14.5811
9.82052
72.6089
39.7874
21.4271
12.019
8.09899
-20.0776
1.7812
2.72376
1.78899
1.24757
-11.0949
0.468101
1.02595
0.681862
0.475854
-9.24722
6.73383
5.17253
3.11241
2.12581
-7.17144
2.26071
1.90368
1.15346
0.787747
4.06144
12.2644
7.8109
4.52981
3.06518
7.872
8.24212
4.75618
2.67956
1.7974
33.8433
24.1213
13.4184
7.51345
5.0301
23.1824
15.5117
8.41415
4.67629
3.12211
63.977
32.5056
16.8833
9.29037
6.19656
1984.88
4518.48
2037.77
4492.15
2264.56
4478.01
2686.17
4650.25
2774.66
4760.21
1164.12
1711.08
1857.02
2858.75
640.618
859.314
234.036
292.863
10184.7
2441.34
561.873
126.093
31.5058
2787.38
752.427
200.703
45.8358
10.0293
10031.1
2386.18
548.856
122.183
30.7614
2840
838.443
207.318
48.4009
12.0861
9517.2
2249.97
515.928
114.767
28.9417
2756.65
809.705
199.625
46.3673
11.6207
8640.57
2026.46
463.627
103.111
26.0258
2669.04
767.393
186.796
43.014
10.7264
7161.64
1672.36
383.082
85.3659
21.587
2504.16
700.978
168.871
38.6611
9.61727
3328.07
813.251
189.692
42.6284
10.8107
1218.89
346.596
82.9317
18.6763
4.63843
4999.26
1204.26
278.6
62.2712
15.7576
1793.29
503.261
121.323
27.7633
6.95371
1943.31
478.613
112.189
25.3438
6.44268
685.262
202.423
48.2334
10.8665
2.72487
670.895
164.374
38.6493
8.76704
2.23159
273.606
74.1501
16.5331
4.59951
0.91966
-116.926
353.492
4719.39
-993.242
774.64
830.109
2421.07
3104.73
1964.66
3685.5
3126.82
4821.94
3795.16
4707.33
1963.48
2641.24
2079.35
2467.46
1080.01
1122.99
2311.36
1640.58
624.363
-278.015
-560.03
-665.899
-88.7656
13596.9
3719.61
4661.28
3194.49
108.933
236.827
3209.18
-1032.14
-466.142
-739.193
-406.207
7436.7
4039.16
1647.24
1259.81
3766.17
2202.69
764.144
1483.35
-1165.64
-576.319
881.388
743.71
8881.21
4312.48
5542.89
2943.04
4094.61
4773.36
1681.18
-606.465
1135.61
1593.8
1261.23
1048.86
901.999
649.51
1276.77
1006.99
768.679
527.208
220.823
545.026
447.786
334.421
208.933
71.7648
-248.205
-206.92
-154.185
-94.5819
-31.8182
-499.699
-416.569
-310.734
-190.933
-64.2773
-595.034
-496.958
-371.458
-228.664
-77.0634
-76.1938
-58.7988
-38.5197
-19.9543
-5.76753
9588.34
7958.39
6448.87
5520.14
4747.37
3117.61
2565.97
2221.51
1725.97
857.129
3516.7
2719.87
2163.49
1585.48
772.266
2391.52
1824.13
1475.57
1065.63
427.248
173.704
145.172
193.234
169.314
76.2628
274.509
290.634
270.053
200.599
78.1057
2667.15
2157.31
1633.49
1089.2
429.584
-591.296
-261.054
-82.7686
2.30516
13.0885
-361.94
-247.063
-139.374
-59.1279
-12.8111
-497.664
-288.216
-132.041
-40.3878
-4.52307
-370.731
-309.499
-226.591
-135.007
-43.9877
5358.4
4640.59
3824.38
3312.31
2857.12
3073.27
2369.43
1873.46
1342.88
615.457
1466.1
1257.21
1002.59
679.415
256.822
1089.95
904.977
698.458
459.317
168.621
3109.04
2465.09
1830.62
1180.73
441.462
1923.18
1597.69
1221.72
789.114
280.281
659.598
542.445
411.404
264.184
93.9884
1295.44
1067.99
802.959
506.23
175.639
-1007.77
-809.914
-582.48
-347.377
-114.753
-507.145
-413.433
-299.01
-177.597
-58.2069
772.202
644.763
496.551
323.106
115.915
654.93
549.125
423.43
274.554
97.5454
5644.73
3997.74
3281.09
2830.66
2300.36
3250.7
2477.84
1858.01
1276.02
551.84
4014.72
3196.11
2482.65
1830.44
847.734
2324.54
1854.73
1402.97
949.559
396.584
3448.4
2776.68
2076.66
1332.49
483.271
3589.91
2623.72
2031.7
1437.51
578.651
1455.34
1191.8
893.866
565.072
197.383
-538.6
-444.618
-326.537
-197.005
-65.34
985.178
817.993
629.98
412.076
148.851
-29978.7
-48824.4
-24892.3
-39489.4
-26520.8
-55124.1
-31709
-70037.7
-19048.7
-13094.1
-21296
-13353.7
-17500.7
-11292.7
-21542.8
-11439
-24948.4
-18917.7
-36142.2
-26176.2
-21451.3
-17209.6
-30165
-22777.5
-17111.8
-17591.7
-14091.8
-13642.7
-16695.1
-15607.1
-41158
-11364.4
-15791.7
-5934.85
-50134.9
-13945.4
-14109.1
-5320.63
-30752.7
-9685.15
-16172.7
-6218.72
-27440.4
-8512.42
-13025
-5259.42
-16480.6
-5987.76
-12382.5
-5465.8
-14313.2
-5199.48
-12817.3
-6258.56
-11436.7
-4561.14
-14554.1
-5156.68
-5097.32
-1794.78
-10951.6
-7413.75
-9450.8
-5852.72
-9588.06
-7778.68
-8257.9
-5932.32
-9653.5
-5607.33
-11340.2
-7233.52
-6486.69
-3935.72
-3498.15
-2190.06
-5599.48
-3897.37
-2943.73
-2124.67
-6603.43
-3666.09
-3635.5
-1867.25
-8544.9
-4355.5
-5624.4
-6463.55
-10886.5
-7340.57
-7951.21
-10947.9
-5776.3
-2598.87
-3366.8
-3719.33
-3098.19
-1249.77
-1512.99
-1405.17
-12922.5
-15838.8
-7319.61
-17985.8
-13436
-15112.1
-8410.95
-18380.2
-13571.8
-13736
-10020.8
-17465.7
-9202.91
-7392.88
-10171.1
-11321.6
-11308.8
-10052.8
-11743.7
-13743.5
-14898.8
-21144.4
-7001.22
-7341.19
-8048.19
-9723.94
-15031.8
-15109.2
-10563.5
-19217.8
-14830.7
-14008.5
-10393.4
-18935.7
-14778.3
-12395.3
-9734.03
-17677.2
-14645.6
-8217.77
-6544.28
-8664.38
-6969.84
-9748.07
-7957.86
-10754.4
-9196.73
-16092.2
-14735.5
-7684.94
-6684.43
-7914.03
-7029
-8816.08
-8414.23
-10626.3
-10695.8
-14773.9
-15370.3
-7128.7
-5694.36
-5247.75
-6752.07
-8717.44
-11819.1
-6598.55
-10933
-4885.16
-6326.79
-6974.53
-5715.1
-1079.32
-4466.07
-373.205
-1359.32
-3245.24
-7495.68
-806.589
-2160
-634.367
-4041.31
-246.85
-1272.08
-5042
-4987.96
-5798.34
-3544.22
-7802.55
-6099.9
-9387.23
-6239.49
-1231.98
-2717.35
-2874.97
-1605.64
-1538.6
-1932.28
-2185.36
-1608.32
-6429.12
-2211.35
-8712.5
-2969.01
-6574.12
-2311.11
-8920.7
-3197.99
-6530.58
-2277.65
-9434.58
-3626.15
-3886.02
-1114.8
-4922.02
-1875.01
-5635.91
-2176.29
-6828.16
-2574.48
-9976.3
-3958.61
-4887.1
-1515.47
-4651.14
-2250.12
-5673.39
-2648.77
-7598.9
-3285.78
-10399.7
-3925.24
-6593.05
-6153.72
-5092.41
-4952.04
-11083.4
-8482.11
-9082.87
-7516.26
-4353.05
-3651.6
-1799.65
-1258.44
-4136.28
-3876.39
-1698.24
-1719.18
-3272.88
-4871.61
-3817.07
-5251.17
-3914.18
-2732.72
-3596.21
-772.523
-7360.41
-2082.1
2396.48
121.889
-1182.86
-553.399
-25.1478
362.043
-2377.91
-1557.46
-903.958
-498.82
-2568.23
-1664.98
-1401.95
-615.502
-2909.7
-2019.44
-1967.31
-929.143
-1432.66
-270.714
362.81
824.937
-5381.34
-5739.31
-4227
-3915.86
-7360.99
-7354.57
-6154.14
-5165.42
-2737.07
-2970.94
-3969.79
-4489.07
-2636.15
-2269.26
-1194.9
-1075.92
-4010.82
-3158.38
-2084.2
-1651.75
-1518.36
-1621.5
-397.151
-705.369
-1751.13
-1132.89
-2412.17
-1608.84
-2613.69
-1928.53
-3649.19
-2587.12
-731.622
-419.191
-1239.1
-656.16
245.828
397.557
-395.701
96.95
-3351.93
-4064.04
-2654.89
-3785.91
-3340.78
-4110.16
-2716.86
-3778.5
-3584.38
-3883.14
-2882.59
-3600.04
-3124.81
-5195
-2562.03
-2071.15
-2001.48
-7682.43
-5345.89
-4669.78
-4513.8
-4182.05
-6186.54
-5061.22
-4101.87
-3593.4
-2555.68
-4659.17
-4528.46
-5693.95
-8731.87
-4482.89
-4127.13
-5481.34
-8347.25
-4236.84
-3946.01
-5079.95
-7736.43
-7365.86
-5629.72
-6432.25
-4833.58
-5357.71
-4170.09
-5127.19
-4556.14
-4748.8
-7148.22
-5963.98
-5582.51
-4872.58
-4792.77
-4133.53
-4243.61
-3946.78
-4542.53
-3241.71
-6157.04
-4004.11
-2845.36
-2803.21
-1127.51
-5947.9
-5168.69
-4635.62
-3483.23
-2057.19
-746.994
-3058.54
-2359.74
-3337.79
-1097.48
-565.621
8.39453
-3843.42
-2561.71
-783.705
-497.404
-2662.28
-736.587
-375.803
106.613
-1692.19
-1629.44
-1669.24
-3081.55
-2578.13
-2766.48
-2347.46
-4257.86
-1912.1
-1110.87
-959.766
-1909.3
196.304
349.375
763.818
178.37
-3208.8
-938.175
-5809.27
-540.372
-3036.07
-1025.7
-5667.18
-563.84
-2410.38
-645.563
-5155.5
-412.702
-3123.63
-734.534
-2739.53
-659.797
-2766.11
-842.541
-2664.36
-504.12
-4850.58
-575.757
-4227.73
-876.906
-3677.63
-616.507
-3475.8
-677.595
-3571.02
-515.518
-5099.4
-610.264
-675.727
-165.222
88.1142
264.934
-234.251
-49.8043
30.9143
79.7881
-674.909
-144.021
92.5369
241.2
-179.688
-0.986064
16.4807
29.0264
-700.451
-120.413
76.6158
193.457
-85.5305
131.442
237.914
253.855
380.137
322.136
388.012
372.33
771.143
512.792
372.87
249.468
-346.892
38.4422
248.252
419.859
-274.999
88.7282
177.376
406.338
-748.117
-108.995
127.346
322.59
-573.531
-4.67924
143.816
499.328
43.7274
191.3
270.888
349.332
2.61518
173.953
186.037
285.704
435.61
342.041
266.612
193.916
303.05
265.61
198.049
175.561
-1042.11
-259.261
101.322
437.278
-1265.92
-290.01
-20.1781
535.744
-1004.47
-232.096
113.337
446.174
-1220.34
-270.735
-19.0423
531.127
-941.72
-190.14
67.3717
371.427
-1115.22
-234.095
-49.5129
473.632
-637.835
-73.831
49.9047
242.083
-1161.05
-211.446
-70.7105
583.392
-591.472
-26.5934
73.0813
371.17
-1153
-216.431
-53.776
366.915
-497.268
-81.7979
4.62808
89.7165
-1082.23
-190.975
-40.9023
368.935
-474.879
-73.5197
5.64447
86.98
-937.438
-140.519
-40.119
355.687
-407.998
-52.273
14.2382
90.5749
-777.361
-96.9011
-57.7401
314.22
-337.47
-30.6307
9.50878
84.3144
-580.772
-28.3414
-19.8818
266.039
-180.872
19.082
14.9137
80.2517
-278.788
69.8047
122.284
261.105
57.8767
134.81
108.781
123.465
-482.833
-3.81138
52.4053
262.509
-31.5172
83.2302
61.6356
101.942
-25.7848
152.045
161.918
236.702
152.308
178.267
143.039
133.28
234.185
226.438
170.497
166.981
256.217
214.603
152.444
122.974
56.3218
14.8342
5.25665
2.49363
1.59811
23.4771
7.03224
2.69376
1.32287
0.857482
64.0155
20.773
8.76854
4.52506
2.98178
35.4996
14.5982
6.93743
3.73991
2.49693
78.0705
28.8141
13.248
7.07075
4.70807
90.3438
42.0881
21.3464
11.7704
7.90858
101.488
49.1249
25.2327
13.9499
9.37412
112.225
60.0744
32.0238
17.9033
12.06
94.042
37.7886
18.2248
9.88018
6.59976
79.4844
33.318
16.3668
8.91576
5.96398
85.0779
31.3295
14.7163
7.92709
5.29171
68.7387
30.5925
15.5753
8.59743
5.78192
100.88
43.5198
21.4819
11.7211
7.84314
80.1899
37.5108
19.0881
10.5126
7.05018
93.6809
48.9922
25.9554
14.4854
9.75272
77.8936
40.5323
21.4175
11.9389
8.03396
62.3674
13.4044
4.29525
1.95603
1.23785
29.2523
5.49146
1.67662
0.754478
0.476498
65.9727
16.8273
6.401
3.18825
2.08056
30.5173
6.71036
2.43296
1.19861
0.780921
66.9181
20.0462
8.60363
4.50413
2.98599
32.7392
10.5534
4.8657
2.62756
1.7591
72.5976
27.5979
13.4184
7.35031
4.94398
42.4684
16.3161
8.10835
4.47419
3.01743
58.6762
29.707
15.7461
8.83553
5.97659
-1999.73
-3818.51
-2070.43
-3835.4
-2277.85
-3880.44
-2522.61
-4000.62
-2455.19
-4029.34
-1013.87
-1523.08
-1633.4
-2496.94
-525.281
-741.452
-136.317
-203.907
-9885.54
-2357.87
-541.053
-121.201
-30.2527
-2668.73
-724.787
-193.248
-44.0626
-9.62831
-9703.58
-2300.09
-528.016
-117.411
-29.5439
-2722.22
-807.652
-199.49
-46.5064
-11.6013
-9154.02
-2162.62
-495.788
-110.284
-27.8162
-2635.78
-777.817
-191.709
-44.5019
-11.1486
-8274.7
-1944.88
-445.592
-99.1951
-25.0588
-2530.85
-733.309
-178.84
-41.2163
-10.2833
-6869.28
-1609.02
-369.266
-82.3916
-20.8585
-2352.83
-666.875
-161.348
-37.022
-9.22211
-3247.39
-792.778
-184.813
-41.526
-10.533
-1140.03
-326.759
-78.4167
-17.6954
-4.40155
-4837.58
-1166.02
-269.94
-60.3772
-15.2915
-1677.3
-476.763
-115.511
-26.5123
-6.65393
-1902.53
-467.951
-109.53
-24.7209
-6.28071
-632.773
-188.014
-44.7343
-10.0751
-2.52681
-646.034
-157.867
-36.9785
-8.36338
-2.12376
-234.341
-62.8215
-13.6283
-3.91234
-0.743116
-163.348
-1428.56
-6050.39
561.704
-6937.4
-3061.13
-6734.91
-3140.25
-12328.9
-6586.62
-13791.2
-7298.67
-110.271
-395.034
-615.592
-725.288
-640.744
-198.827
-180.954
-626.832
-951.649
-1062.5
-861.895
-262.899
-91.3831
-94.7365
-310.929
-310.505
-441.23
-437.957
-419.94
-407.277
-364.118
-371.232
-249.38
-259.856
856.067
2104.49
3418.68
2431.72
2208.24
1021.82
757.662
2110.03
3442.84
4017.79
3352.44
1488.67
-99.3089
-83.8055
-63.3895
-39.4401
-13.3801
-356.204
-301.067
-228.107
-142.125
-48.2547
-554.971
-468.963
-355.245
-221.31
-75.135
-653.61
-552.058
-417.995
-260.308
-88.3576
-577.531
-487.843
-369.337
-229.949
-78.036
-182.102
-156.211
-119.547
-74.7508
-25.3697
-162.817
-137.253
-103.71
-64.4778
-21.8656
-564.669
-476.729
-360.813
-224.633
-76.2375
-856.826
-722.973
-546.913
-340.386
-115.507
-955.668
-805.476
-608.723
-378.61
-128.443
-774.425
-651.984
-492.246
-305.979
-103.778
-237.725
-201.41
-152.774
-95.1636
-32.2861
-82.3742
-69.5916
-52.6979
-32.8172
-11.1386
-85.4491
-72.2437
-54.7489
-34.116
-11.5835
-280.533
-237.276
-179.901
-112.15
-38.0878
-280.203
-237.051
-179.772
-112.089
-38.0708
-398.035
-336.599
-255.16
-159.043
-54.0094
-395.027
-333.997
-253.143
-157.764
-53.5713
-378.9
-320.467
-242.947
-151.426
-51.4198
-367.122
-310.16
-234.885
-146.288
-49.6558
-328.716
-278.111
-210.804
-131.32
-44.5695
-334.173
-281.833
-213.03
-132.464
-44.9224
-226.247
-192.171
-145.863
-90.7511
-30.74
-233.939
-197.193
-148.841
-92.3725
-31.2794
755.747
625.492
466.789
289.09
98.2043
1848.58
1524.61
1136.95
705.823
240.819
2963.92
2423.67
1805.35
1128.97
390.638
2092.28
1705.84
1273.83
800.723
278.165
1931.57
1579.47
1174.65
727.709
237.172
922.709
770.877
582.259
362.586
115.736
669.944
555.186
414.487
256.548
87.0663
1860.13
1538.2
1147.86
711.448
242.015
3013.6
2478.69
1846.44
1147.14
392.142
3490.54
2855.69
2124.6
1323.89
455.091
2911.01
2379.92
1771.02
1104.22
378.401
1306.11
1078.95
810.376
508.266
174.189
196.311
483.502
707.846
821.749
740.348
311.718
304.672
752.123
1076.09
1177.12
953.966
328.672
157.357
149.769
377.833
367.629
507.649
495.883
481.102
457.384
428.871
383.998
370.526
303.256
-720.107
-1900.3
-3068.37
-1970.11
-1664.88
-438.612
-701.021
-2022.31
-3250.59
-3673.8
-2860.11
-903.302
177.375
150.296
114.177
71.2936
24.235
436.514
369.515
280.427
174.959
59.4474
638.808
540.511
410.01
255.718
86.8718
741.406
627.128
475.572
296.542
100.729
668.384
565.734
429.241
267.731
90.9514
285.102
244.542
187.493
117.607
40.0188
275.126
232.974
176.874
110.392
37.5172
678.49
573.825
435.099
271.289
92.149
970.031
819.706
621.053
387.019
131.424
1060.13
894.945
677.463
421.933
143.246
858.509
724.178
547.856
341.1
115.794
297.751
252.906
192.403
120.169
40.8358
142.213
120.537
91.5931
57.203
19.4469
135.357
114.727
87.1776
54.4445
18.509
341.25
289.005
219.424
136.944
46.5385
332.047
281.223
213.523
133.264
45.2881
458.375
388.074
294.544
183.778
62.4452
447.677
378.94
287.551
179.386
60.9474
434.545
368.022
279.401
174.356
59.2467
412.768
349.234
264.887
165.186
56.1118
387.893
328.961
250.004
156.09
53.0458
346.459
293.029
222.159
138.482
47.028
336.905
287.202
219.076
136.991
46.5584
274.069
232.157
176.169
109.829
37.2879
-632.049
-519.786
-385.805
-238.208
-80.8598
-1663.15
-1366.46
-1016.11
-630.149
-215.112
-2643.4
-2147.7
-1592.52
-994.865
-345.039
-1657
-1318.97
-965.41
-600.051
-207.87
-1412.54
-1113.78
-799.164
-479.589
-148.226
-363.442
-266.901
-173.954
-91.4523
-18.4822
-618.675
-511.644
-381.348
-235.847
-80.0347
-1781.04
-1471.34
-1097.25
-680.016
-231.39
-2838.28
-2328.4
-1730.98
-1074.51
-367.402
-3172.49
-2578.71
-1908.17
-1185.55
-407.385
-2451.37
-1975.63
-1451.66
-897.784
-306.456
-757.247
-593.921
-425.345
-258.206
-86.7759
-1559.84
-986.782
-343.553
515.332
808.365
1022.58
429.067
-11279.1
-1952.03
-3358.62
-1585.64
152.237
-3938.05
716.819
2293.22
1043.41
-6155.42
-2879.65
-649.937
-673.276
-3387.13
-1398.21
-357.526
-1076.57
1898.89
1123.91
-579.127
-274.762
-7961.84
-3669.45
-4472.13
-2187.85
-3525.49
-3570.89
-1180.27
1126.79
-522.579
-788.098
-507.432
-403.697
-443.323
-462.778
-626.722
-406.215
-268.962
-184.777
-92.1458
-288.106
-226.763
-163.946
-101.257
-34.9594
466.351
395.623
300.608
187.59
63.7406
727.793
613.708
463.584
287.968
97.5691
920.609
776.383
586.674
364.618
123.59
391.05
333.062
252.642
156.532
52.7287
-7827.3
-6650.91
-5624.02
-5290.37
-5176.81
-1249.28
-794.838
-803.509
-840.107
-563.085
-2333.57
-1670.23
-1348.13
-1088.27
-628.016
-1010.31
-641.745
-546.989
-456.887
-195.829
150.103
127.714
85.5444
38.3883
5.88062
-3234.22
-2588.21
-1934.88
-1274.63
-497.886
650.736
545.615
403.147
241.591
78.1996
1980.17
1604.06
1175.19
718.334
242.226
934.085
780.11
582.364
357.628
119.964
-4161.65
-3660.27
-3120.9
-2966.6
-2917.97
-1970.56
-1383.23
-1097.17
-856.443
-461.551
-509.172
-399.61
-320.236
-240.965
-107.117
-540.3
-421.142
-318.615
-217.376
-86.2633
-2787.6
-2208.95
-1649.66
-1078.65
-412.334
-1163.77
-924.397
-689.273
-446.976
-162.171
-282.532
-213.101
-153.774
-99.8153
-37.5835
-920.737
-743.568
-551.638
-347.305
-121.41
1688.56
1404.75
1048.49
645.84
217.723
1012.14
851.885
640.521
395.234
133.045
-479.671
-379.804
-283.739
-185.255
-68.4459
-217.14
-164.801
-121.872
-81.9137
-31.4313
-4782.92
-3225.15
-2664.83
-2452.39
-2227.95
-2638.47
-1926.85
-1413.63
-984.399
-449.431
-2946.64
-2241.65
-1708.52
-1326.09
-655.499
-1608.43
-1212.81
-889.008
-615.81
-282.407
-2922.09
-2318.03
-1720.16
-1107.46
-407.161
-2471.12
-1620.39
-1245.36
-943.097
-413.346
-995.346
-794.543
-586.759
-371.199
-131.333
1016.44
857.527
646.623
400.174
135.032
-411.583
-313.296
-233.33
-158.589
-61.911
0.605268
31.1062
69.4385
81.2457
30.7297
-88.3661
-21322
-18843.5
-17863.9
-20346.4
-15661.5
-12424.6
-14029.9
-10670.1
-18610.7
-16405.7
-17159.6
-16214.7
-15083.2
-12881.8
-15882.5
-17614.7
-15766.8
-14407
-16230.7
-13279.3
-11254.2
-11793.8
-9466.86
-16757
-14989.3
-15455
-14163.9
-13411.7
-12514.2
-12987.6
-13896.6
-12751.8
-11437.2
-12504.4
-11085.9
-9539.54
-9872.66
-8477.15
-14082.5
-12911.2
-13119.5
-12081.8
-11436
-10572.3
-10970.5
-9761.27
-9192.56
-8095.48
-8583.18
-8260.64
-7419.69
-7352.14
-6714.43
-10222.6
-10363.5
-9652.31
-9775.5
-8627.77
-7812.54
-8697.68
-6265.35
-5992.83
-5218.36
-5445.32
-5547.13
-5029.91
-4860.37
-4487.01
-6789.67
-6813.07
-6488.92
-6385.98
-5919.25
-5357.07
-5815.63
-2259.4
-2180.16
-1889.25
-1956.53
-2051.63
-1916.87
-1782.61
-1661.42
-2569.03
-2578.71
-2409.41
-2314.63
-2224.62
-2042.77
-2193.73
-7969.95
-7846.22
-12007.4
-12947.5
-7478.75
-6635.21
-10529.5
-8559.45
-6102.77
-4414.66
-6064.78
-4404.3
-6079
-5836.73
-4505.12
-7917.45
-7511.08
-10694.3
-11660.3
-6971.53
-6303.77
-9303.38
-8000.34
-6048.1
-3803.97
-5948.48
-4048.59
-5431.16
-5239.14
-4467.66
-7189.2
-6849.27
-9056.14
-9712.39
-6431.99
-5974.43
-8101.33
-7158.28
-4949.86
-4033.92
-4940.79
-4298.86
-4608.53
-4631.68
-4512.56
-5751.61
-5533.76
-6768.32
-7111.87
-5252.26
-4904.2
-6261.52
-5705.51
-4659.76
-3550.62
-4587.25
-3824.71
-4289.47
-4277.17
-3963.67
-3938.35
-3813.15
-4462.21
-4634.24
-3548.07
-3279.8
-4201.82
-3853.64
-3229.46
-2690.44
-3163.57
-2863.88
-2963.38
-2925.51
-2785.35
-1459.79
-1415.33
-1628.05
-1682.48
-1311.95
-1204.88
-1542.98
-1420.55
-1052.94
-979.441
-1123.88
-1081.64
-1092.49
-1067.57
-1011.86
7668.45
24758.5
6095.44
25908.7
4567.33
26741.8
7193.99
41042.6
8832.75
56380.6
8777.29
41162.4
8469.94
34211.9
8818.61
29960.7
5343.17
3346.58
14317.6
8542
5218.31
2825.51
15582.8
7743.01
5857.45
4296.24
18496.2
13161.3
4438.71
3255.15
18571.9
13624.8
10482.8
4445.94
9087.09
4072.92
4216.67
9839.51
35805
9666.45
12844.8
4285.16
45928.3
12412
11945
4049.48
25698.6
7950.61
13203.2
4571.53
22459.2
7119.23
6702.82
3324.11
9419.86
3702.09
7332.2
3955.54
9346.07
3619.89
9195.24
5261.98
8049.25
3533.11
11728.3
4242.62
4017.98
1411.34
13351
9361.52
8180.38
6030.5
14587.8
12035.1
7933.96
6865.81
7876.83
5415.36
11283.2
7695.5
5334.4
3941.95
2639.21
2173.94
5062.11
4370.8
2535.68
2459.43
5196.21
3455.54
2604.7
1685.81
7127.98
3902.29
5430.37
6470.19
9895.39
7057.36
7977.86
11165.2
4659.01
2225.86
3169.89
3675.44
2271.47
954.972
1342.26
1351.88
9102.21
16353.9
6128.85
18199.3
10655.2
15970.5
7550.76
18978.5
12003.6
14397.3
9642.15
18397.2
13467.6
15597.2
10540.9
10272.6
11133.5
15640.9
14941.7
15108.6
15725.1
22462.6
12729.4
10180.4
9085.46
10229.3
15745.5
19063.5
17135.3
22022.8
21287.8
17425.4
16226.9
21677.9
20813.3
15064.1
14773.7
20268.3
20003.4
11503.5
9136.96
11170.6
9896.02
12416.8
11357.6
13543.3
13217.3
18512.5
19191.1
10712.9
9454.42
10586.8
10507.7
11161.1
12188.8
12666
14568.6
16449.2
19413.1
8953.72
7054.82
6081.41
7659.1
11768.3
14170.9
8096.65
12699.1
5278.88
6842.36
7947.2
6596.84
1525.02
5049.17
726.622
1777.9
4104.12
8468.91
1456.03
2888.32
828.184
4366.51
400.858
1506.2
5251.66
5317.89
5981.04
3806.85
8374.59
6780.97
9846.62
6929.05
1328.23
2909.93
2978.43
1753.01
1610.2
2069.85
2262.28
1716.33
13751.9
8402.64
2675.1
15487.6
8960.69
2945.02
13168.1
8298.86
2823.96
15202
8952.01
2939.58
12110.6
7633.04
2522.17
14792.1
8974.64
3006.92
6161.01
3471.7
984.762
8133.53
5398.35
1866.77
9871.57
6806.64
2348.65
11520.8
7513.21
2504.73
14615.4
9190.17
3209.61
7202.71
4190.77
1377.03
7817.59
5662.41
2148.08
9426.44
6961.27
2573.85
11718.4
8252.53
2969.77
14807.6
9337.89
3332.68
299.485
2040.43
2888.83
4159.42
2278.26
2595
5699.76
5384.52
585.547
998.199
623.801
1035.39
482.018
1392.68
862.651
1826.62
3199.18
1566.35
4057.1
2353.98
2136.39
3720.74
3415.41
793.198
6285.33
1422.61
-2113.86
507.521
1683.4
1165.63
1103.76
923.256
9606.52
4235.53
2599.22
1561.84
9735.64
4394.69
3294.33
1988.5
9617.01
4714.39
4748.83
3223.61
3377.91
2357.36
1523.95
1450.93
12812.8
11342.8
5993.49
6196.47
14051.8
13150.4
6903.87
6936.23
5207.99
5336.33
10811.3
8964.26
3514.19
3687.09
1871.34
2178.89
4198.83
4170.67
2216.05
2403.24
2978.78
3235.33
1575.26
2024.28
4538.79
3047
4490.26
3039.66
7131.74
4017.28
6730.04
4221.76
2667.69
2181.17
2812.49
1941.58
1399.78
1314.89
1755.84
1117.28
11246
7475.93
5450.14
5320.72
11173.5
7714.13
5466.36
5297.96
11668.9
8154.58
5544.47
5177.69
14059.8
15480.7
12583.8
8225.13
4449.55
14680.4
13262.5
12037.6
9690.97
5922.85
13735.4
12159.5
9517.66
7136.92
4231.32
6032.76
5139.77
5459.65
5991.45
6331.87
5145.63
5565.55
5976.3
6789.42
5301.58
5704.32
5995.64
11073.8
7865.04
10037.5
6955.07
7671.01
6104.87
6947.04
5796.44
5347.88
6022.95
9215.91
8025.66
7936.98
6890.32
6577.99
5885.36
5583.95
5416.87
4180.66
5716.58
7087.99
4808.9
4691.81
2852.2
9472.43
7315.28
6547.58
5316.35
3724.57
2236.51
5420.51
3964.68
4683.2
2228.1
1655.41
945.035
5058.12
3684.36
1704.44
1418.88
3964.78
1753.32
1510.94
780.9
2959.79
2651.21
2451.02
3517.02
4135.01
3797.75
3115.17
4472.05
3031.14
1897.44
1798.66
2408.02
866.064
400.221
111.158
399.714
3496.36
1465.95
434.624
3928.85
1038.17
277.821
3604.75
1608.35
494.915
3958.44
1086.23
305.769
3497.45
1656.23
434.646
3961.32
1128.43
269.095
4942.54
2585.09
622.041
4239.03
2089.69
517.881
3936.72
1907.23
526.206
3709.31
1744.93
385.884
4009.15
1130.51
178.515
6137.73
3164.79
886.95
5280.11
2648.08
741.879
4593.21
2278.12
668.009
4143.44
1795.82
453.125
4363
1073.92
266.653
1594.31
558.444
122.687
-120.409
661.517
242.738
68.7761
-20.5933
1690.95
611.795
166.8
-66.1136
844.798
335.963
160.5
72.3279
1806.03
674.196
243.123
21.7602
1425.54
629.138
222.898
43.0896
1059.93
558.057
157.612
-30.262
951.425
583.579
301.831
161.087
1471.42
624.044
174.619
-127.755
1241.62
519.318
217.514
-117.34
1750.38
658.547
215.133
-71.9578
1566.27
590.711
233.863
-189.02
1158.45
562.241
200.877
-46.0512
937.378
445.327
223.388
1.48261
826.641
474.512
255.779
142.728
626.93
361.351
224.034
120.235
2014
676.13
132.841
-245.311
1956.52
619.959
192.595
-328.973
2010.53
684.352
147.994
-233.889
1894.84
601.923
197.719
-319.136
1969.61
683.403
211.837
-154.739
1773.82
568.795
233.222
-253.461
1725.93
627.745
275.809
10.2772
1945.47
633.984
317.821
-292.826
1526.12
555.32
268.827
-62.215
1519.22
434.651
167.823
-214.368
597.957
157.595
44.9638
-40.4109
1574.47
462.612
181.341
-202.009
624.3
169.634
55.0293
-29.5069
1622.88
497.204
215.968
-173.747
645.31
185.105
67.7999
-17.6299
1471.55
468.031
243.194
-131.745
633.384
191.361
90.5446
3.63928
1352.06
462.615
253.961
-68.7269
574.181
201.011
119.271
31.4341
924.895
358.437
166.215
-23.777
535.02
250.67
140.375
68.678
1078.75
373.617
185.432
-53.5925
546.787
224.524
131.202
51.0884
733.796
335.108
169.612
22.5916
467.82
253.658
144.978
85.5541
503.496
291.353
182.358
102.942
375.952
241.841
154.283
107.689
-11.1969
3.5319
3.53926
2.24691
1.55769
-1.83264
2.44743
1.96082
1.20475
0.82864
5.93095
11.7383
7.69372
4.51434
3.06818
16.4785
11.6333
6.7139
3.81967
2.57496
22.9978
20.9071
12.5049
7.17912
4.85175
64.1273
39.0314
21.551
12.1173
8.14691
74.9512
45.3495
25.1044
14.1626
9.54214
109.461
60.0003