/*--------------------------------*- C++ -*----------------------------------*\
  =========                 |
  \\      /  F ield         | OpenFOAM: The Open Source CFD Toolbox
   \\    /   O peration     | Website:  https://openfoam.org
    \\  /    A nd           | Version:  11
     \\/     M anipulation  |
\*---------------------------------------------------------------------------*/
FoamFile
{
    format      ascii;
    class       volScalarField;
    location    "1.5";
    object      T;
}
// * * * * * * * * * * * * * * * * * * * * * * * * * * * * * * * * * * * * * //

dimensions      [0 0 0 1 0 0 0];

internalField   nonuniform List<scalar> 
5712
(
536.895
554.031
525.937
546.645
510.184
536.532
483.137
514.283
482.787
507.433
506.989
531.165
521.677
542.64
531.341
550.043
500.983
479.844
521.917
491.403
472.087
450.151
492.91
460.266
545.277
553.069
558.842
563.152
534.506
544.146
552.266
558.393
535.049
518.916
511.5
500.807
530.983
545.937
542.103
541.775
502.117
506.473
517.661
516.697
470.594
474.149
549.364
551.635
522.933
529.359
558.866
561.758
558.24
567.039
566.476
570.512
551.003
564.143
562.876
569.056
536.57
557.893
548.912
563.956
557.934
567.496
561.429
568.742
464.694
452.217
472.641
455.038
432.348
421.317
440.541
424.305
501.003
484.496
493.44
481.422
478.283
456.413
479.774
456.248
446.141
425.867
447.613
425.804
506.346
485.972
507.851
485.937
526.131
555.041
513.457
545.998
518.964
550.741
509.642
542.442
531.157
557.497
515.327
547.867
532.758
558.398
515.538
548.703
550.832
536.223
562.896
552.192
540.373
525.904
558.631
546.591
524.819
511.544
551.229
538.447
448.714
411.247
481.427
508.404
542.125
405.322
442.53
474.927
500.185
531.204
411.061
445.183
476.181
504.021
535.46
510.243
487.635
515.48
493.855
504.295
483.272
513.665
491.922
495.087
475.521
510.939
489.582
394.634
381.296
432.631
418.243
463.369
447.356
487.396
469.603
510.29
490.48
399.191
384.695
434.508
422.457
465.627
452.595
492.217
476.945
514.921
497.785
439.093
432.977
437.948
432.538
404.234
384.775
404.509
384.497
468.964
466.827
470.134
466.295
435.675
431.804
435.656
432.085
403.87
384.767
404.011
385.116
466.405
466.128
466.406
466.524
497.833
495.597
521.302
518.263
497.651
493.261
520.295
514.697
496.682
495.75
521.541
519.447
495.403
495.049
520.464
518.533
463.632
445.468
436.13
466.837
447.249
437.567
460.883
442.423
432.695
465.172
444.932
434.747
453.576
435.064
425.229
462.847
441.16
430.174
366.962
356.719
351.698
401.485
386.933
379.111
428.418
410.449
400.429
447.762
427.953
417.414
462.444
438.328
425.847
368.915
356.29
350.008
407.567
391.581
382.777
434.489
414.563
403.151
453.886
429.989
416.686
466.082
438.629
423.944
403.225
394.127
409.032
399.999
435.828
419.98
446.823
427.911
378.382
355.428
379.587
357.349
379.768
358.299
381.621
360.306
381.231
377.308
380.61
375.106
361.809
365.356
404.218
407.023
433.615
436.477
384.526
388.91
384.486
387.11
368.393
371.511
333.304
315.507
338.539
318.691
336
316.118
341.088
319.69
340.31
316.979
347.213
321.662
351.018
324.632
352.79
326.391
376.353
366.788
383.978
370.362
402.438
391.847
410.232
395.265
362.981
349.23
355.749
345.784
388.297
372.349
390.105
372.928
414.982
397.104
416.607
397.355
367.017
351.243
368.902
351.997
342.968
319.188
332.146
313.975
336.482
315.436
329.072
311.798
346.882
321.985
333.998
315.374
348.958
323.87
334.802
316.126
317.194
306.727
309.24
302.551
319.514
309.388
309.639
303.334
323.971
315.274
310.688
305.489
357.044
380.353
339.84
327.071
310.756
375.194
352.329
333.394
321.387
307.337
380.079
356.956
338.597
324.334
309.13
298.511
291.319
296.293
289.91
301.366
293.915
297.589
291.238
307.062
299.179
300.134
293.709
364.592
352.254
342.431
331.133
325.96
316.503
314.419
305.851
303.183
296.609
368.261
353.41
346.271
332.786
329.853
318.514
317.15
307.126
305.075
297.772
350.657
332.906
353.927
335.148
373.436
353.344
376.172
354.515
336.129
320.86
333.13
318.569
356.624
336.586
357.331
337.214
378.052
355.192
378.529
355.694
338.788
322.46
339.506
323.029
320.605
308.066
306.77
297.685
318.961
306.352
305.982
297.009
322.027
309.316
307.297
297.975
323.492
310.027
308.19
298.813
284.136
280.687
279.342
280.032
277.33
276.415
286.796
282.891
281.342
281.311
278.434
277.37
291.85
287.383
285.525
283.355
279.905
278.579
340.117
331.953
328.112
320.882
314.45
311.623
307.684
302.143
299.898
297.264
291.812
289.446
284.92
280.749
279.092
339.187
328.982
324.446
320.568
312.064
308.371
307.84
300.625
297.615
296.729
290.634
288.278
284.153
280.156
278.598
301.252
291.954
286.105
282.096
302.619
292.453
286.231
282.058
301.349
292.032
286.187
282.166
303.105
292.7
286.42
282.211
301.343
292.101
286.412
282.414
303.488
292.943
286.734
282.487
304.764
293.563
286.839
282.423
305.807
294.182
287.107
282.542
302.646
292.783
286.793
282.618
300.958
292.397
286.837
282.964
300.984
292.09
286.614
282.718
299.978
291.913
286.644
282.974
303.997
293.419
286.979
282.627
301.76
292.833
287.041
283.075
305.041
293.988
287.253
282.808
302.411
293.229
287.29
283.284
299.041
291.198
285.976
282.264
296.466
290.347
285.815
282.522
299.068
291.236
286.049
282.343
296.686
290.444
285.872
282.579
299.213
291.337
286.206
282.524
297.306
290.698
286.012
282.695
299.089
291.387
286.362
282.772
297.809
290.933
286.186
282.866
298.902
291.444
286.489
283.03
294.419
289.73
285.526
282.975
293.248
289.426
285.424
283.111
294.863
289.893
285.611
283.035
293.733
289.602
285.503
283.159
295.678
290.203
285.744
283.119
294.577
289.92
285.633
283.239
296.678
290.609
285.975
283.267
295.551
290.314
285.821
283.355
297.647
291.078
286.257
283.429
296.391
290.732
286.037
283.492
298.979
291.92
286.672
283.663
297.621
291.583
286.548
283.825
298.368
291.518
286.461
283.536
297.034
291.171
286.287
283.652
299.493
292.285
286.849
283.777
298.165
291.988
286.787
283.995
300.008
292.64
287.076
283.948
298.713
292.377
287.039
284.181
278.933
276.924
275.586
274.782
274.408
278.93
276.928
275.589
274.784
274.409
278.972
276.943
275.596
274.787
274.411
278.981
276.953
275.602
274.791
274.414
279.026
276.967
275.608
274.794
274.415
279.041
276.983
275.617
274.8
274.419
279.112
277.022
275.638
274.811
274.427
279.213
277.078
275.668
274.828
274.438
279.095
277.002
275.626
274.804
274.422
279.165
277.024
275.635
274.808
274.425
279.072
276.984
275.616
274.798
274.418
279.132
277.005
275.624
274.803
274.421
279.158
277.038
275.645
274.815
274.429
279.224
277.056
275.652
274.818
274.431
279.255
277.09
275.673
274.83
274.44
279.31
277.101
275.676
274.831
274.44
278.946
276.922
275.584
274.781
274.407
278.964
276.922
275.582
274.78
274.406
278.977
276.936
275.591
274.784
274.409
278.987
276.933
275.588
274.783
274.408
279.028
276.958
275.601
274.79
274.413
279.03
276.952
275.597
274.788
274.411
279.083
276.98
275.612
274.796
274.416
279.076
276.974
275.608
274.794
274.415
279.112
276.992
275.618
274.799
274.419
523.511
520.105
523.321
519.967
523.392
520.219
524.499
521.44
527.656
524.63
533.489
533.839
531.73
531.011
534.235
534.994
534.473
535.104
562.952
570.841
572.511
572.89
572.972
554.45
568.504
571.979
572.774
572.945
563.083
570.882
572.522
572.893
572.973
554.63
568.57
571.993
572.78
572.946
563.218
570.926
572.533
572.895
572.973
554.864
568.645
572.013
572.784
572.947
563.625
571.028
572.557
572.901
572.975
555.411
568.787
572.046
572.792
572.949
564.444
571.202
572.594
572.909
572.977
556.475
569.027
572.097
572.802
572.951
565.236
571.316
572.613
572.912
572.977
559.018
569.548
572.202
572.823
572.956
565.02
571.289
572.61
572.912
572.977
558.038
569.34
572.161
572.815
572.954
565.311
571.325
572.615
572.912
572.977
559.499
569.664
572.226
572.828
572.957
565.393
571.344
572.619
572.913
572.977
559.616
569.707
572.234
572.829
572.957
417.985
455.857
453.445
413.608
396.183
397.728
399.721
402.706
412.02
416.182
443.695
453.385
452.115
462.508
426.827
431.661
413.891
417.463
406.765
408.932
359.087
341.049
295.766
290.158
292.333
289.793
293.856
355.496
348.365
331.624
336.985
332.786
312.621
321.893
317.395
307.176
310.408
305.529
353.031
326.351
310.344
307.1
314.685
310.784
303.529
301.663
299.486
296.443
304.153
301.678
355.602
333.995
341.721
322.66
315.365
327.346
303.927
297.237
306.501
340.915
325.6
312.45
298.938
283.448
330.15
319.127
307.448
295.017
281.099
293.394
290.118
285.894
281.007
275.716
288.425
285.995
282.817
279.105
275.071
290.368
287.617
284.03
279.852
275.323
288.105
285.73
282.619
278.982
275.029
291.714
288.732
284.861
280.366
275.497
338.064
322.388
309.287
296.381
282.468
331.601
316.575
304.221
292.323
279.858
322.453
312.506
301.867
290.848
279.234
323.26
310.3
299.286
288.783
278.381
320.101
307.823
297.332
287.436
277.836
307.631
301.362
293.938
285.844
277.341
314.781
306.571
297.46
287.921
278.056
311.119
303.69
295.321
286.538
277.546
303.164
297.919
291.505
284.377
276.841
305.738
299.82
292.774
285.095
277.073
301.783
296.831
290.72
283.897
276.677
337.218
322.442
309.71
296.785
282.642
318.852
310.218
300.527
290.14
278.993
305.881
300.128
293.158
285.427
277.213
303.187
298.043
291.696
284.56
276.923
309.514
303.037
295.331
286.827
277.728
306.357
300.628
293.633
285.79
277.357
300.169
295.667
290.009
283.553
276.585
298.556
294.344
289.012
282.919
276.362
296.652
292.774
287.83
282.173
276.104
293.993
290.606
286.243
281.209
275.781
300.661
295.994
290.17
283.597
276.585
298.552
294.322
288.977
282.885
276.348
338.91
324.147
311.334
298.139
283.265
324.892
315.126
304.451
292.949
280.196
330.758
318.785
307.078
294.706
280.932
316.239
308.518
299.516
289.584
278.758
310.231
303.75
295.966
287.282
277.894
319.837
311.169
301.366
290.766
279.243
300.509
295.933
290.191
283.655
276.617
294.687
291.177
286.67
281.477
275.873
302.702
297.683
291.459
284.43
276.882
499.69
540.289
492.711
534.952
468.195
515.304
474.869
520.663
480.627
466.163
513.711
484.585
454.884
439.67
486.046
455.097
517.333
532.328
549.245
556.157
510.643
525.249
545.061
552.671
527.208
500.195
504.491
486.501
514.706
539.392
539.575
541.18
499.246
505.748
515.391
516.121
468.407
473.577
546.73
551.044
520.051
528.654
556.844
561.334
547.147
563.449
562.545
569.207
540.385
560.708
559.446
567.86
526.512
554.701
543.973
562.318
556.156
566.873
561.071
568.609
459.589
451.374
469.311
454.653
430.233
422.66
438.838
425.124
497.098
483.616
487.088
479.729
476.702
456.3
479.358
456.248
445.34
426.357
447.422
425.99
504.483
485.59
507.347
485.848
523.101
554.034
512.719
545.786
514.072
549.141
508.287
542.084
529.685
556.984
514.987
547.762
532.352
558.248
515.451
548.675
532.85
516.282
557.327
545.897
524.216
508.592
553.574
541.123
511.598
498.04
547.16
534.431
449.687
420.992
476.549
502.785
540.308
417.699
444.847
469.604
493.549
529.291
418.64
446.632
474.393
502.065
535.038
493.444
477.751
510.466
495.739
489.479
474.497
509.911
494.675
483.148
468.648
508.977
493.463
410.103
400.515
437.038
426.094
460.501
447.975
483.26
469.319
510.611
495.418
409.717
397.943
438.471
429.822
466.006
456.952
492.028
480.754
515.948
502.308
441.055
436.78
439.18
434.768
409.235
392.492
407.124
388.641
469.366
467.991
470.486
468.194
436.382
432.935
435.887
432.426
405.195
386.775
404.425
385.713
466.699
466.753
466.51
466.715
497.989
496.295
521.573
518.883
497.696
494.593
520.717
516.022
496.813
496.106
521.693
519.734
495.455
495.164
520.512
518.616
468.058
463.794
483.075
477.345
464.862
459.951
481.74
474.959
458.743
453.64
479.83
471.52
392.283
386.615
417.379
411.097
438.577
431.671
458.738
451.726
479.705
468.531
386.97
380.236
421.973
414.149
447.163
437.527
466.998
455.052
481.157
466.571
399.015
392.28
408.471
399.678
425.765
413.955
443.652
425.214
380.346
360.49
384.134
362.931
379.986
362.551
384.292
364.848
382.81
377.521
382.199
376.597
365.408
368.608
404.231
407.06
432.48
436.18
385.559
389.253
385.491
387.461
370.445
372.23
344.852
326.134
346.57
327.149
346.514
325.974
347.812
326.933
349.676
325.754
352.404
327.55
354.054
328.258
353.833
327.645
381.391
373.074
386.231
373.888
403.925
395.945
410.526
397.566
366.928
353.461
363.476
353.081
389.41
374.197
390.458
373.524
415.129
398.324
416.683
397.761
369.025
353.488
369.524
352.713
348.317
324.177
336.455
317.642
345.836
322.836
336.192
317.404
349.71
324.892
336.335
317.458
349.835
324.816
335.549
316.803
341.435
336.83
323.69
319.78
342.993
338.634
323.355
319.636
345.518
342.074
322.91
319.818
375.676
396.438
358.831
342.684
320.713
394.697
375.436
358.435
341.806
319.165
392.822
371.307
352.05
335.526
316.861
331.282
324.921
314.546
306.654
333.671
327.616
314.94
307.348
337.505
331.933
315.586
308.352
387.796
379.35
369.074
361.87
352.693
346.92
336.383
330.45
315.181
308.209
384.264
371.873
363.566
352.147
345.436
335.348
329.607
319.954
313.099
305.39
359.562
343.421
358.554
340.653
381.331
363.781
380.125
359.9
340.825
325.887
341.644
327.761
358.89
339.25
358.024
337.999
379.956
357.779
379.111
356.455
341.157
324.937
340.235
323.765
324.791
312.083
309.974
300.498
326.185
313.401
311.135
301.657
324.239
311.362
309.062
299.48
324.206
310.666
308.747
299.27
319.703
317.894
293.73
292.507
323.073
320.893
294.68
293.295
327.419
323.877
295.755
292.846
371.918
366.638
355.36
350.878
341.395
337.646
324.188
319.199
294.94
290.289
360.956
355.726
342.237
337.858
326.251
322.507
309.97
306.195
289.765
286.248
308.046
295.92
288.396
283.421
308.556
296.037
288.339
283.287
307.673
295.753
288.328
283.384
308.269
295.859
288.288
283.297
306.955
295.451
288.372
283.528
307.693
295.551
288.314
283.417
307.479
295.287
287.889
283.047
306.767
294.8
287.486
282.771
306.1
294.963
288.15
283.452
303.633
294.158
287.989
283.733
305.742
295.002
288.385
283.772
303.876
294.399
288.2
283.953
306.119
294.787
287.847
283.179
303.335
293.892
287.754
283.578
305.76
294.458
287.553
282.999
302.934
293.584
287.533
283.458
307.043
295.667
288.521
283.741
305.56
295.302
288.614
284.182
306.676
295.523
288.49
283.746
305.344
295.215
288.57
284.172
306.077
295.284
288.478
283.82
305.035
295.063
288.504
284.161
305.017
294.904
288.433
283.972
304.549
294.857
288.457
284.195
303.954
294.551
288.37
284.173
304.079
294.989
288.466
284.897
303.059
294.817
288.475
285.19
304.028
294.938
288.45
284.892
303.031
294.767
288.448
285.173
303.866
294.821
288.367
284.835
302.899
294.657
288.37
285.127
303.516
294.623
288.307
284.794
302.588
294.478
288.285
285.074
302.887
294.329
288.235
284.764
301.977
294.22
288.17
285.01
301.509
293.642
287.814
284.504
300.364
293.49
287.797
284.748
302.141
293.988
288.031
284.64
301.111
293.87
288.002
284.897
300.956
293.307
287.544
284.309
299.729
293.111
287.539
284.558
300.485
292.977
287.308
284.128
299.213
292.742
287.285
284.367
279.625
277.295
275.784
274.893
274.482
279.589
277.284
275.78
274.891
274.481
279.603
277.281
275.776
274.888
274.479
279.557
277.264
275.768
274.884
274.476
279.582
277.264
275.765
274.882
274.475
279.518
277.24
275.755
274.876
274.471
279.443
277.201
275.734
274.865
274.463
279.338
277.146
275.705
274.848
274.452
279.524
277.232
275.748
274.872
274.468
279.544
277.225
275.742
274.868
274.465
279.579
277.254
275.759
274.878
274.472
279.588
277.245
275.752
274.874
274.469
279.453
277.196
275.73
274.862
274.461
279.482
277.193
275.725
274.859
274.459
279.358
277.145
275.702
274.847
274.451
279.4
277.149
275.702
274.846
274.45
279.675
277.307
275.788
274.894
274.483
279.72
277.315
275.79
274.896
274.484
279.661
277.297
275.782
274.891
274.481
279.708
277.308
275.786
274.893
274.482
279.642
277.281
275.773
274.886
274.477
279.685
277.293
275.777
274.888
274.479
279.63
277.267
275.764
274.88
274.473
279.653
277.274
275.767
274.882
274.475
279.616
277.257
275.758
274.877
274.471
523.453
521.729
523.748
521.993
524.529
522.754
526.137
524.208
529.107
526.994
533.896
534.366
532.485
532.094
534.438
535.236
534.535
535.175
563.169
570.911
572.529
572.894
572.973
555.032
568.66
572.017
572.783
572.947
563.346
570.956
572.54
572.897
572.974
555.288
568.733
572.031
572.788
572.948
563.548
571.004
572.551
572.9
572.974
555.617
568.818
572.051
572.793
572.949
563.979
571.103
572.573
572.904
572.976
556.19
568.957
572.083
572.799
572.951
564.73
571.261
572.607
572.912
572.977
557.142
569.172
572.128
572.809
572.953
565.332
571.34
572.619
572.914
572.978
559.241
569.609
572.216
572.826
572.957
565.19
571.328
572.619
572.914
572.978
558.452
569.441
572.184
572.82
572.955
565.36
571.337
572.618
572.913
572.977
559.605
569.695
572.234
572.829
572.957
565.408
571.348
572.62
572.914
572.977
559.647
569.716
572.236
572.83
572.957
417.858
455.372
451.791
413.22
405.341
411.966
402.987
411.207
433.617
451.405
437.611
453.332
276.905
277.375
278.414
280.111
282.617
286.101
277.292
277.782
278.86
280.602
283.116
286.521
276.616
276.474
277.109
277.012
278.202
278.213
280.007
280.236
282.645
283.161
286.126
286.694
290.736
296.63
304.002
312.964
321.741
327.514
290.914
296.312
302.621
309.377
315.404
319.158
276.531
275.995
275.277
274.423
273.484
276.955
276.353
275.549
274.592
273.541
277.891
277.144
276.148
274.965
273.668
279.42
278.435
277.125
275.574
273.874
281.674
280.334
278.559
276.465
274.177
284.798
282.958
280.537
277.693
274.593
276.88
276.29
275.501
274.562
273.531
277.321
276.663
275.783
274.738
273.591
278.293
277.483
276.404
275.124
273.722
279.86
278.805
277.403
275.746
273.933
282.119
280.705
278.837
276.637
274.235
285.169
283.265
280.764
277.833
274.64
276.27
275.774
275.109
274.318
273.448
276.142
275.666
275.027
274.267
273.431
276.715
276.15
275.395
274.496
273.509
276.628
276.076
275.339
274.461
273.497
277.701
276.984
276.027
274.89
273.642
277.711
276.993
276.034
274.895
273.644
279.328
278.358
277.067
275.538
273.862
279.535
278.533
277.201
275.621
273.891
281.701
280.359
278.579
276.479
274.181
282.166
280.752
278.877
276.664
274.244
284.825
282.985
280.559
277.707
274.598
285.337
283.417
280.885
277.91
274.666
288.934
286.416
283.132
279.3
275.138
294.156
290.75
286.37
281.304
275.817
300.606
296.049
290.309
283.747
276.652
308.289
302.271
294.921
286.635
277.659
315.559
308.043
299.198
289.374
278.662
320.242
311.726
301.934
291.153
279.332
289.088
286.54
283.223
279.357
275.157
293.875
290.518
286.198
281.198
275.782
299.423
295.095
289.608
283.312
276.501
305.294
299.896
293.175
285.531
277.263
310.457
304.078
296.278
287.477
277.942
313.648
306.654
298.193
288.686
278.369
276.963
277.558
278.744
280.63
283.383
287.191
277.354
277.976
279.206
281.133
283.869
287.529
276.673
276.533
277.29
277.198
278.535
278.561
280.544
280.813
283.46
284.046
287.352
288.078
292.194
298.393
305.909
314.686
322.92
327.93
292.175
297.756
304.102
310.676
316.291
319.473
276.584
276.04
275.311
274.444
273.491
277.121
276.494
275.657
274.66
273.564
278.192
277.4
276.344
275.088
273.71
279.892
278.837
277.433
275.767
273.94
282.371
280.93
279.016
276.753
274.275
285.792
283.81
281.192
278.106
274.734
276.937
276.338
275.538
274.585
273.539
277.498
276.813
275.898
274.81
273.615
278.607
277.751
276.609
275.253
273.766
280.343
279.216
277.718
275.944
274.001
282.804
281.291
279.287
276.921
274.332
286.088
284.053
281.371
278.216
274.771
276.322
275.818
275.143
274.339
273.456
276.195
275.711
275.062
274.289
273.438
276.879
276.29
275.501
274.563
273.532
276.797
276.22
275.449
274.53
273.52
278.003
277.241
276.224
275.014
273.685
278.027
277.262
276.24
275.024
273.688
279.815
278.774
277.386
275.738
273.931
280.059
278.981
277.543
275.836
273.964
282.443
280.993
279.066
276.785
274.286
282.972
281.441
279.406
276.997
274.358
285.943
283.943
281.295
278.172
274.757
286.6
284.5
281.718
278.435
274.846
290.268
287.564
284.018
279.861
275.33
295.776
292.152
287.459
281.997
276.055
302.374
297.592
291.519
284.522
276.919
309.905
303.702
296.057
287.373
277.917
316.682
309.05
300.01
289.91
278.852
320.642
312.088
302.229
291.35
279.403
290.241
287.532
283.989
279.841
275.323
295.201
291.663
287.086
281.763
275.975
300.79
296.283
290.535
283.904
276.705
306.501
300.953
294.006
286.065
277.449
311.287
304.81
296.858
287.852
278.073
313.943
306.916
298.401
288.822
278.416
359.751
341.606
297.974
291.852
294.892
291.738
296.294
364.733
362.273
340.791
352.376
319.784
331.431
313.298
317.342
310.962
358.858
332.575
316.079
311.621
319.924
314.644
306.153
305.019
303.814
299.951
309.095
305.664
357.738
335.633
345.656
325.175
318.599
331.975
307.119
300.235
310.374
341.639
326.277
313.033
299.359
283.618
330.71
319.648
307.886
295.32
281.215
295.425
291.877
287.261
281.876
276.014
289.975
287.328
283.846
279.756
275.294
292.711
289.635
285.589
280.839
275.661
289.883
287.259
283.799
279.727
275.284
293.953
290.665
286.359
281.316
275.823
348.222
331.975
317.335
301.92
284.602
346.596
330.522
315.711
299.982
282.538
331.622
321.007
308.849
295.49
280.89
339.833
325.512
311.739
297.012
281.276
314.474
307.503
298.855
289.042
278.454
324.16
315.154
304.434
292.502
279.659
308.945
303.056
295.587
287.016
277.756
312.446
305.9
297.678
288.301
278.191
306.931
301.422
294.381
286.27
277.501
343.459
328.426
314.803
300.345
284.071
324.935
315.786
305.073
293.158
280.072
311.303
304.953
297
287.916
278.078
307.426
301.787
294.659
286.472
277.586
314.497
307.5
298.906
289.159
278.545
309.988
303.848
296.193
287.449
277.934
302.608
297.803
291.687
284.63
276.957
301.668
297.063
291.143
284.284
276.833
300.653
296.256
290.549
283.91
276.701
297.219
293.397
288.411
282.587
276.254
305.279
300.059
293.375
285.658
277.297
302.255
297.561
291.517
284.513
276.909
341.216
326.305
313.186
299.464
283.807
326.511
316.619
305.688
293.792
280.511
334.765
322.537
310.236
296.879
281.741
318.653
310.701
301.287
290.757
279.177
313.293
306.484
298.155
288.712
278.395
324.353
315.308
304.758
293.03
280.058
303.48
298.538
292.239
284.97
277.071
297.451
293.577
288.54
282.668
276.282
306.324
300.875
293.981
286.056
277.445
278.818
290.126
300.635
309.935
317.473
323.25
479.476
473.326
449.186
455.152
463.46
454.26
439.399
428.677
499.548
515.618
492.89
507.232
483.229
474.412
495.061
469.055
464.091
440.676
445.449
455.779
447.708
432.584
423.442
488.852
500.231
483.058
492.956
474.082
465.966
482.422
454.54
450.948
428.783
432.238
444.552
438.079
422.603
414.97
472.565
483.363
467.975
477.672
461.149
454.371
469.203
439.486
436.876
416.316
418.913
431.844
426.321
411.423
404.936
457.074
468.469
453.427
463.839
447.934
441.488
456.418
428.549
426.466
407.226
409.387
422.165
417.434
403.019
397.154
445.333
457.548
442.259
453.864
437.892
432.253
447.461
421.127
419.305
401.02
402.96
415.503
411.433
397.164
391.761
437.613
451.599
434.827
448.024
431.259
426.298
441.642
398.571
395.476
421.538
425.91
391.202
385.913
414.45
405.823
375.959
355.589
375.103
357.366
371.499
371.03
360.153
394.169
391.298
415.409
419.191
387.32
382.421
409.165
401.217
371.335
351.848
370.632
353.748
367.27
367.243
356.279
387.187
384.678
406.277
409.292
381.182
376.734
401.144
394.354
366.612
347.333
365.845
349.016
362.824
362.716
351.293
378.625
376.474
395.986
398.41
373.248
368.846
391.72
385.451
359.853
341.853
359.195
343.293
356.479
356.28
345.5
371.857
369.927
388.248
390.351
367.056
362.923
384.46
378.75
354.184
337.874
353.611
338.926
351.384
351.091
341.07
367.064
365.279
382.901
384.825
362.798
359.151
379.393
374.14
350.609
335.2
350.146
336.197
348.154
348.014
338.49
537.542
554.581
525.97
546.599
510.196
536.511
483.125
514.263
482.774
507.408
507.008
531.148
521.732
542.617
532.104
550.736
500.98
479.834
521.901
491.391
472.072
450.137
492.892
460.251
545.771
553.408
559.235
563.408
534.505
544.13
552.206
558.347
535.026
518.908
511.486
500.798
530.971
545.913
542.096
541.77
502.107
506.465
517.651
516.689
470.581
474.138
549.356
551.631
522.924
529.352
558.859
561.756
558.473
567.13
566.637
570.571
550.981
564.133
562.846
569.044
536.556
557.886
548.894
563.949
557.927
567.493
561.426
568.741
464.685
452.209
472.631
455.03
432.336
421.308
440.529
424.295
500.993
484.489
493.432
481.415
478.273
456.405
479.765
456.24
446.13
425.858
447.603
425.795
506.338
485.966
507.843
485.931
526.123
555.038
513.452
545.996
518.955
550.737
509.636
542.439
531.151
557.495
515.323
547.865
532.753
558.396
515.533
548.702
551.137
536.568
563.021
552.363
540.347
525.877
558.619
546.573
524.805
511.53
551.222
538.438
448.706
411.239
481.419
508.395
542.12
405.314
442.523
474.919
500.176
531.199
411.053
445.175
476.174
504.015
535.457
510.576
487.893
515.708
494.034
504.274
483.264
513.656
491.921
495.075
475.514
510.934
489.58
394.627
381.291
432.624
418.238
463.362
447.35
487.388
469.597
510.286
490.477
399.184
384.69
434.502
422.452
465.621
452.59
492.211
476.941
514.918
497.783
439.086
432.971
437.941
432.533
404.226
384.769
404.502
384.491
468.958
466.822
470.128
466.289
435.669
431.798
435.649
432.08
403.863
384.762
404.005
385.11
466.399
466.123
466.4
466.519
497.828
495.593
521.299
518.26
497.646
493.257
520.292
514.695
496.677
495.746
521.539
519.444
495.399
495.045
520.461
518.53
463.839
445.636
436.286
466.999
447.385
437.688
460.884
442.429
432.7
465.176
444.942
434.757
453.575
435.066
425.233
462.848
441.165
430.181
366.959
356.718
351.698
401.482
386.932
379.111
428.415
410.449
400.43
447.76
427.954
417.417
462.444
438.331
425.851
368.912
356.288
350.008
407.564
391.58
382.777
434.486
414.563
403.152
453.884
429.99
416.689
466.081
438.631
423.947
403.175
394.098
408.983
399.971
435.794
419.958
446.789
427.889
378.279
355.438
379.444
357.329
379.687
358.247
381.545
360.262
381.187
377.26
380.578
375.073
361.768
365.318
404.196
407.007
433.598
436.463
384.496
388.891
384.462
387.094
368.366
371.494
333.32
315.498
338.541
318.673
335.978
316.11
341.071
319.685
340.287
316.971
347.189
321.653
350.998
324.623
352.777
326.384
376.335
366.775
383.96
370.35
402.423
391.835
410.217
395.254
362.962
349.22
355.731
345.772
388.282
372.338
390.093
372.919
414.968
397.094
416.596
397.346
367.001
351.234
368.89
351.989
342.953
319.18
332.138
313.969
336.468
315.429
329.063
311.792
346.869
321.977
333.99
315.369
348.947
323.864
334.795
316.121
317.146
306.663
309.226
302.531
319.509
309.387
309.633
303.33
323.961
315.268
310.682
305.485
357.032
380.343
339.828
327.061
310.75
375.185
352.319
333.385
321.38
307.332
380.07
356.945
338.587
324.326
309.124
298.452
291.259
296.283
289.9
301.367
293.919
297.585
291.235
307.059
299.178
300.131
293.707
364.585
352.25
342.424
331.129
325.954
316.499
314.414
305.848
303.179
296.606
368.253
353.405
346.263
332.781
329.845
318.509
317.144
307.123
305.071
297.769
350.648
332.901
353.919
335.143
373.428
353.338
376.164
354.509
336.122
320.856
333.122
318.564
356.617
336.581
357.325
337.209
378.045
355.186
378.522
355.689
338.782
322.455
339.501
323.025
320.599
308.063
306.765
297.682
318.955
306.348
305.977
297.006
322.022
309.312
307.293
297.973
323.487
310.024
308.186
298.811
284.079
280.627
279.278
280.036
277.319
276.399
286.802
282.897
281.347
281.308
278.435
277.371
291.851
287.385
285.527
283.353
279.905
278.579
340.114
331.952
328.111
320.879
314.449
311.622
307.682
302.142
299.898
297.263
291.812
289.447
284.919
280.749
279.092
339.184
328.98
324.445
320.565
312.063
308.37
307.838
300.624
297.614
296.727
290.633
288.278
284.152
280.156
278.598
301.245
291.949
286.099
282.09
302.603
292.443
286.224
282.051
301.346
292.03
286.186
282.166
303.103
292.698
286.42
282.21
301.34
292.099
286.411
282.413
303.485
292.941
286.733
282.487
304.761
293.562
286.838
282.423
305.804
294.18
287.106
282.541
302.643
292.781
286.792
282.617
300.955
292.395
286.836
282.964
300.981
292.088
286.613
282.718
299.975
291.911
286.642
282.973
303.993
293.417
286.978
282.626
301.756
292.831
287.039
283.075
305.037
293.987
287.252
282.807
302.408
293.227
287.289
283.284
299.037
291.195
285.972
282.258
296.46
290.344
285.812
282.518
299.065
291.234
286.048
282.343
296.684
290.443
285.871
282.579
299.21
291.336
286.205
282.524
297.303
290.697
286.011
282.695
299.086
291.385
286.36
282.771
297.807
290.931
286.185
282.866
298.898
291.442
286.487
283.029
294.413
289.727
285.524
282.971
293.237
289.421
285.422
283.109
294.862
289.892
285.61
283.035
293.733
289.601
285.502
283.159
295.676
290.202
285.744
283.119
294.575
289.919
285.632
283.238
296.676
290.608
285.973
283.266
295.548
290.312
285.82
283.354
297.643
291.076
286.255
283.428
296.388
290.73
286.036
283.491
298.976
291.917
286.671
283.662
297.618
291.581
286.546
283.824
298.365
291.516
286.459
283.535
297.031
291.169
286.286
283.651
299.49
292.283
286.847
283.776
298.162
291.986
286.786
283.994
300.005
292.638
287.075
283.948
298.71
292.375
287.038
284.18
278.93
276.923
275.586
274.782
274.408
278.927
276.927
275.589
274.784
274.409
278.972
276.943
275.596
274.787
274.411
278.981
276.953
275.602
274.791
274.414
279.026
276.967
275.607
274.794
274.415
279.041
276.983
275.617
274.799
274.419
279.112
277.022
275.638
274.811
274.427
279.213
277.078
275.668
274.828
274.438
279.095
277.002
275.626
274.804
274.422
279.164
277.023
275.635
274.808
274.425
279.071
276.984
275.615
274.798
274.418
279.132
277.004
275.624
274.803
274.421
279.158
277.038
275.645
274.815
274.429
279.224
277.055
275.652
274.818
274.431
279.255
277.09
275.673
274.83
274.44
279.31
277.1
275.676
274.831
274.44
278.944
276.922
275.583
274.781
274.406
278.962
276.921
275.582
274.78
274.406
278.977
276.936
275.591
274.784
274.409
278.987
276.932
275.587
274.783
274.408
279.027
276.958
275.601
274.79
274.413
279.029
276.952
275.597
274.788
274.411
279.083
276.98
275.612
274.796
274.416
279.076
276.973
275.608
274.794
274.415
279.112
276.992
275.618
274.799
274.419
523.576
520.183
523.333
519.977
523.395
520.222
524.498
521.44
527.655
524.629
533.487
533.837
531.728
531.009
534.233
534.992
534.471
535.102
563.017
570.858
572.515
572.891
572.972
554.489
568.515
571.981
572.775
572.945
563.078
570.882
572.522
572.893
572.973
554.634
568.571
571.993
572.78
572.946
563.217
570.926
572.533
572.895
572.973
554.865
568.645
572.013
572.784
572.947
563.625
571.028
572.557
572.901
572.975
555.412
568.787
572.046
572.792
572.949
564.444
571.202
572.594
572.909
572.977
556.475
569.027
572.097
572.802
572.951
565.236
571.316