# vtk DataFile Version 2.0
tracks
ASCII
DATASET POLYDATA
POINTS 12030 float
-0.0206 0.000999956 1e-05 -0.02058 0.000999959 1e-05 -0.02056 0.000999965 1e-05 -0.02054 0.000999974
1e-05 -0.02052 0.000999985 1e-05 -0.0205 0.001 1e-05 -0.0202034 0.00100022 1e-05
-0.0199069 0.00100067 1e-05 -0.0196103 0.00100133 1e-05 -0.0193137 0.00100219 1e-05 -0.0190172
0.00100326 1e-05 -0.0187132 0.00100467 1e-05 -0.0184093 0.00100589 1e-05 -0.0181054 0.00100711
1e-05 -0.0178015 0.00100832 1e-05 -0.0174976 0.00100954 1e-05 -0.0172058 0.00101083 1e-05
-0.016914 0.00101193 1e-05 -0.0166222 0.00101303 1e-05 -0.0163305 0.00101413 1e-05 -0.0160387
0.00101523 1e-05 -0.0157586 0.00101637 1e-05 -0.0154784 0.00101744 1e-05 -0.0151983 0.00101856
1e-05 -0.0149182 0.00101971 1e-05 -0.0146381 0.0010209 1e-05 -0.0143744 0.00102209 1e-05
-0.0141108 0.00102327 1e-05 -0.0138471 0.00102449 1e-05 -0.0135835 0.00102574 1e-05 -0.0133608
0.00102682 1e-05 -0.0133473 0.00102688 1e-05 -0.0133339 0.00102695 1e-05 -0.0133204 0.00102702
1e-05 -0.0133069 0.00102708 1e-05 -0.0132934 0.00102715 1e-05 -0.0130353 0.00102844 1e-05
-0.0127771 0.00102974 1e-05 -0.0125189 0.00103106 1e-05 -0.0122607 0.00103239 1e-05 -0.0120025
0.00103374 1e-05 -0.0117547 0.00103505 1e-05 -0.0115068 0.00103637 1e-05 -0.0112589 0.00103769
1e-05 -0.0110111 0.00103901 1e-05 -0.0107632 0.00104034 1e-05 -0.0105252 0.00104161 1e-05
-0.0102873 0.00104289 1e-05 -0.0100493 0.00104417 1e-05 -0.00981133 0.00104545 1e-05 -0.00957337
0.00104673 1e-05 -0.00934491 0.00104794 1e-05 -0.00911645 0.00104917 1e-05 -0.008888 0.00105038
1e-05 -0.00865954 0.0010516 1e-05 -0.00843108 0.00105281 1e-05 -0.00821175 0.00105397 1e-05
-0.00799242 0.00105512 1e-05 -0.00777309 0.00105628 1e-05 -0.00755376 0.00105742 1e-05 -0.00733443
0.00105857 1e-05 -0.00712387 0.00105966 1e-05 -0.0069133 0.00106075 1e-05 -0.00670273 0.00106183
1e-05 -0.00649216 0.00106291 1e-05 -0.0062816 0.00106399 1e-05 -0.00607944 0.00106501 1e-05
-0.00587729 0.00106604 1e-05 -0.00567514 0.00106706 1e-05 -0.00547298 0.00106807 1e-05 -0.00527083
0.00106908 1e-05 -0.00507675 0.00107004 1e-05 -0.00488267 0.00107101 1e-05 -0.0046886 0.00107196
1e-05 -0.00449452 0.00107292 1e-05 -0.00430044 0.00107387 1e-05 -0.00411412 0.00107477 1e-05
-0.0039278 0.00107568 1e-05 -0.00374147 0.00107658 1e-05 -0.00355515 0.00107748 1e-05 -0.00336883
0.00107837 1e-05 -0.00318995 0.00107922 1e-05 -0.00301107 0.00108007 1e-05 -0.00283219 0.00108092
1e-05 -0.00265331 0.00108176 1e-05 -0.00247443 0.00108261 1e-05 -0.0023027 0.00108341 1e-05
-0.00213097 0.00108421 1e-05 -0.00195924 0.00108502 1e-05 -0.0017875 0.00108582 1e-05 -0.00161577
0.00108661 1e-05 -0.0014509 0.00108737 1e-05 -0.00128603 0.00108813 1e-05 -0.00112116 0.00108889
1e-05 -0.000956289 0.00108965 1e-05 -0.000791418 0.00109041 1e-05 -0.000633135 0.00109114 1e-05
-0.000474851 0.00109186 1e-05 -0.000316567 0.00109259 1e-05 -0.000158284 0.00109331 1e-05 0
0.00109403 1e-05 0.000105677 0.00109451 1e-05 0.000211355 0.00109498 1e-05 0.000317032 0.00109546
1e-05 0.00042271 0.00109593 1e-05 0.000528387 0.00109639 1e-05 0.000634886 0.00109686 1e-05
0.000741385 0.00109732 1e-05 0.000847885 0.00109778 1e-05 0.000954384 0.00109823 1e-05 0.00106088
0.00109869 1e-05 0.00116821 0.00109914 1e-05 0.00127554 0.00109958 1e-05 0.00138286 0.00110003
1e-05 0.00149019 0.00110046 1e-05 0.00159752 0.00110089 1e-05 0.00170568 0.00110132 1e-05
0.00181384 0.00110174 1e-05 0.001922 0.00110215 1e-05 0.00203016 0.00110256 1e-05 0.00213833
0.00110295 1e-05 0.00224733 0.00110334 1e-05 0.00235633 0.00110372 1e-05 0.00246533 0.0011041
1e-05 0.00257434 0.00110447 1e-05 0.00268334 0.00110482 1e-05 0.00279319 0.00110517 1e-05
0.00290304 0.00110552 1e-05 0.00301289 0.00110585 1e-05 0.00312274 0.00110618 1e-05 0.00323259
0.00110651 1e-05 0.00334329 0.00110682 1e-05 0.003454 0.00110713 1e-05 0.0035647 0.00110743
1e-05 0.0036754 0.00110772 1e-05 0.00378611 0.00110801 1e-05 0.00389767 0.00110828 1e-05
0.00400924 0.00110856 1e-05 0.0041208 0.00110882 1e-05 0.00423237 0.00110908 1e-05 0.00434393
0.00110933 1e-05 0.00445636 0.00110957 1e-05 0.00456879 0.0011098 1e-05 0.00468123 0.00111003
1e-05 0.00479366 0.00111026 1e-05 0.00490609 0.00111047 1e-05 0.0050194 0.00111067 1e-05
0.0051327 0.00111087 1e-05 0.00524601 0.00111106 1e-05 0.00535931 0.00111125 1e-05 0.00547262
0.00111142 1e-05 0.00558681 0.00111159 1e-05 0.005701 0.00111175 1e-05 0.00581518 0.00111191
1e-05 0.00592937 0.00111206 1e-05 0.00604356 0.0011122 1e-05 0.00615863 0.00111233 1e-05
0.00627371 0.00111246 1e-05 0.00638878 0.00111257 1e-05 0.00650386 0.00111269 1e-05 0.00661893
0.00111279 1e-05 0.0067349 0.00111288 1e-05 0.00685087 0.00111297 1e-05 0.00696684 0.00111306
1e-05 0.00708281 0.00111313 1e-05 0.00719878 0.0011132 1e-05 0.00727027 0.00111323 1e-05
0.00734176 0.00111327 1e-05 0.00741325 0.0011133 1e-05 0.00748474 0.00111333 1e-05 0.00755386
0.00111335 1e-05 0.00759972 0.00111337 1e-05 0.00764557 0.00111338 1e-05 0.00769143 0.00111339
1e-05 0.00773728 0.0011134 1e-05 0.00778313 0.00111341 1e-05 0.00790091 0.00111343 1e-05
0.00801869 0.00111345 1e-05 0.00813647 0.00111345 1e-05 0.00825425 0.00111345 1e-05 0.00837203
0.00111344 1e-05 0.00849073 0.00111342 1e-05 0.00860942 0.0011134 1e-05 0.00872812 0.00111336
1e-05 0.00884682 0.00111332 1e-05 0.00896551 0.00111328 1e-05 0.00908513 0.00111321 1e-05
0.00920475 0.00111315 1e-05 0.00932437 0.00111308 1e-05 0.00944398 0.00111299 1e-05 0.0095636
0.00111291 1e-05 0.00968415 0.0011128 1e-05 0.0098047 0.00111269 1e-05 0.00992525 0.00111258
1e-05 0.0100458 0.00111246 1e-05 0.0101663 0.00111233 1e-05 0.0102878 0.00111218 1e-05
0.0104093 0.00111203 1e-05 0.0105308 0.00111188 1e-05 0.0106523 0.00111171 1e-05 0.0107738
0.00111154 1e-05 0.0108962 0.00111135 1e-05 0.0110186 0.00111116 1e-05 0.0111411 0.00111096
1e-05 0.0112635 0.00111075 1e-05 0.0113859 0.00111054 1e-05 0.0115093 0.0011103 1e-05
0.0116327 0.00111006 1e-05 0.0117561 0.00110982 1e-05 0.0118795 0.00110957 1e-05 0.0120028
0.00110931 1e-05 0.0121272 0.00110902 1e-05 0.0122515 0.00110874 1e-05 0.0123759 0.00110846
1e-05 0.0125002 0.00110816 1e-05 0.0126245 0.00110786 1e-05 0.0127498 0.00110753 1e-05
0.0128752 0.0011072 1e-05 0.0130005 0.00110687 1e-05 0.0131258 0.00110652 1e-05 0.0132511
0.00110617 1e-05 0.0133774 0.0011058 1e-05 0.0135036 0.00110542 1e-05 0.0136299 0.00110504
1e-05 0.0137562 0.00110465 1e-05 0.0138825 0.00110426 1e-05 0.0140098 0.00110383 1e-05
0.014137 0.00110341 1e-05 0.0142643 0.00110298 1e-05 0.0143915 0.00110254 1e-05 0.0145188
0.0011021 1e-05 0.0146471 0.00110163 1e-05 0.0147753 0.00110116 1e-05 0.0149036 0.00110068
1e-05 0.0150318 0.00110019 1e-05 0.0151601 0.00109969 1e-05 0.0152893 0.00109918 1e-05
0.0154186 0.00109866 1e-05 0.0155478 0.00109813 1e-05 0.0156771 0.00109759 1e-05 0.0158063
0.00109704 1e-05 0.0159366 0.00109648 1e-05 0.0160668 0.00109591 1e-05 0.0161971 0.00109533
1e-05 0.0163273 0.00109474 1e-05 0.0164576 0.00109415 1e-05 0.0165889 0.00109354 1e-05
0.0167201 0.00109291 1e-05 0.0168514 0.00109228 1e-05 0.0169827 0.00109165 1e-05 0.0171139
0.001091 1e-05 0.0172462 0.00109034 1e-05 0.0173785 0.00108967 1e-05 0.0175108 0.00108899
1e-05 0.0176431 0.0010883 1e-05 0.0177754 0.0010876 1e-05 0.0179087 0.0010869 1e-05
0.018042 0.00108617 1e-05 0.0181753 0.00108544 1e-05 0.0183087 0.0010847 1e-05 0.018442
0.00108395 1e-05 0.0185763 0.0010832 1e-05 0.0187107 0.00108243 1e-05 0.018845 0.00108164
1e-05 0.0189794 0.00108085 1e-05 0.0191137 0.00108005 1e-05 0.0192491 0.00107925 1e-05
0.0193845 0.00107843 1e-05 0.0195199 0.00107759 1e-05 0.0196553 0.00107674 1e-05 0.0197907
0.00107589 1e-05 0.0199272 0.00107505 1e-05 0.0200636 0.00107418 1e-05 0.0202001 0.00107328
1e-05 0.0203365 0.00107238 1e-05 0.020473 0.00107149 1e-05 0.0206105 0.00107059 1e-05
0.020748 0.00106967 1e-05 0.0208855 0.00106873 1e-05 0.021023 0.00106778 1e-05 0.0211606
0.00106683 1e-05 0.0212991 0.00106588 1e-05 0.0214377 0.00106491 1e-05 0.0215763 0.00106392
1e-05 0.0217149 0.00106292 1e-05 0.0218535 0.00106192 1e-05 0.0219931 0.00106093 1e-05
0.0221328 0.00105991 1e-05 0.0222724 0.00105886 1e-05 0.0224121 0.00105781 1e-05 0.0225517
0.00105676 1e-05 0.0226925 0.00105572 1e-05 0.0228332 0.00105464 1e-05 0.022974 0.00105355
1e-05 0.0231147 0.00105244 1e-05 0.0232555 0.00105134 1e-05 0.0233973 0.00105025 1e-05
0.0235391 0.00104913 1e-05 0.023681 0.00104798 1e-05 0.0238228 0.00104682 1e-05 0.0239647
0.00104567 1e-05 0.0241076 0.00104453 1e-05 0.0242505 0.00104335 1e-05 0.0243935 0.00104215
1e-05 0.0245364 0.00104094 1e-05 0.0246794 0.00103974 1e-05 0.0248234 0.00103854 1e-05
0.0249675 0.00103732 1e-05 0.0251115 0.00103606 1e-05 0.0252556 0.0010348 1e-05 0.0253996
0.00103355 1e-05 0.0255448 0.0010323 1e-05 0.02569 0.00103102 1e-05 0.0258351 0.00102972
1e-05 0.0259803 0.00102841 1e-05 0.0261255 0.0010271 1e-05 0.0262718 0.0010258 1e-05
0.0264181 0.00102447 1e-05 0.0265644 0.00102311 1e-05 0.0267107 0.00102175 1e-05 0.026857
0.00102039 1e-05 0.0270044 0.00101903 1e-05 0.0271519 0.00101765 1e-05 0.0272993 0.00101624
1e-05 0.0274468 0.00101482 1e-05 0.0275942 0.00101341 1e-05 0.0277428 0.001012 1e-05
0.0278914 0.00101055 1e-05 0.0280399 0.00100909 1e-05 0.0281885 0.00100762 1e-05 0.0283371
0.00100615 1e-05 0.0284869 0.00100468 1e-05 0.0286366 0.00100318 1e-05 0.0287863 0.00100166
1e-05 0.0289361 0.00100014 1e-05 0.0290858 0.000998612 1e-05 0.0292367 0.000997081 1e-05
0.0293876 0.00099552 1e-05 0.0295385 0.000993948 1e-05 0.0296894 0.000992367 1e-05 0.0298403
0.000990779 1e-05 0.0299924 0.000989186 1e-05 0.0301445 0.000987564 1e-05 0.0302966 0.000985933
1e-05 0.0304486 0.000984293 1e-05 0.0306007 0.000982644 1e-05 0.030754 0.000980989 1e-05
0.0309072 0.000979306 1e-05 0.0310605 0.000977614 1e-05 0.0312138 0.000975913 1e-05 0.031367
0.000974202 1e-05 0.0315215 0.000972481 1e-05 0.0316759 0.000970736 1e-05 0.0318304 0.000968981
1e-05 0.0319848 0.000967216 1e-05 0.0321393 0.000965441 1e-05 0.0322949 0.000963652 1e-05
[...]
POINT_DATA 12030
FIELD attributes 4
age 1 12030 float
-9.99973e-06 -7.99975e-06 -5.99979e-06 -3.99984e-06 -1.99991e-06 0 2.96554e-05 5.93049e-05 8.89483e-05 0.000118586 0.000148217
0.000178568 0.00020891 0.000239239 0.000269555 0.000299856 0.00032893 0.000357996 0.000387051 0.000416093 0.000445124
0.000472984 0.000500839 0.000528686 0.000556526 0.00058436 0.000610551 0.000636739 0.000662923 0.000689104 0.000711212
0.000712549 0.000713887 0.000715225 0.000716563 0.0007179 0.000743531 0.00076916 0.000794788 0.000820415 0.00084604
0.00087064 0.000895241 0.000919842 0.000944445 0.000969048 0.000992669 0.00101629 0.00103992 0.00106354 0.00108717
0.00110986 0.00113255 0.00115525 0.00117794 0.00120065 0.00122245 0.00124425 0.00126605 0.00128786 0.00130967
0.00133062 0.00135157 0.00137252 0.00139348 0.00141444 0.00143457 0.0014547 0.00147484 0.00149498 0.00151512
0.00153448 0.00155382 0.00157317 0.00159253 0.00161189 0.0016305 0.00164909 0.00166769 0.0016863 0.00170491
0.00172279 0.00174066 0.00175854 0.00177642 0.0017943 0.00181149 0.00182867 0.00184585 0.00186304 0.00188023
0.00189675 0.00191326 0.00192977 0.00194629 0.00196281 0.00197869 0.00199456 0.00201043 0.0020263 0.00204218
0.00205279 0.00206339 0.00207399 0.0020846 0.0020952 0.00210591 0.0021166 0.00212729 0.00213799 0.00214869
0.00215948 0.00217026 0.00218105 0.00219183 0.00220262 0.00221351 0.00222439 0.00223526 0.00224615 0.00225703
0.00226801 0.00227898 0.00228996 0.00230093 0.00231191 0.00232299 0.00233406 0.00234513 0.00235621 0.00236728
0.00237846 0.00238963 0.00240081 0.00241198 0.00242316 0.00243444 0.00244572 0.002457 0.00246828 0.00247957
0.00249095 0.00250233 0.00251372 0.00252511 0.00253651 0.002548 0.0025595 0.002571 0.0025825 0.00259401
0.00260562 0.00261723 0.00262884 0.00264046 0.00265209 0.00266382 0.00267554 0.00268728 0.00269902 0.00271077
0.00272262 0.00273447 0.00274633 0.0027582 0.00277007 0.0027774 0.00278472 0.00279205 0.00279939 0.00280648
0.00281119 0.00281589 0.0028206 0.00282532 0.00283003 0.00284214 0.00285425 0.00286638 0.00287851 0.00289065
0.00290291 0.00291516 0.00292743 0.0029397 0.00295198 0.00296439 0.00297679 0.0029892 0.00300162 0.00301405
0.00302662 0.00303916 0.00305173 0.0030643 0.00307688 0.0030896 0.00310231 0.00311503 0.00312775 0.00314049
0.00315338 0.00316625 0.00317913 0.00319202 0.00320492 0.00321798 0.00323101 0.00324405 0.00325711 0.00327018
0.00328342 0.00329662 0.00330983 0.00332306 0.0033363 0.00334972 0.0033631 0.00337649 0.00338989 0.00340331
0.00341692 0.00343047 0.00344404 0.00345763 0.00347123 0.00348502 0.00349876 0.00351252 0.00352629 0.00354008
0.00355406 0.003568 0.00358195 0.00359591 0.0036099 0.00362407 0.00363821 0.00365235 0.00366651 0.0036807
0.00369507 0.00370941 0.00372375 0.0037381 0.0037525 0.00376707 0.00378161 0.00379615 0.00381071 0.00382531
0.00384009 0.00385484 0.00386959 0.00388435 0.00389916 0.00391414 0.00392911 0.00394406 0.00395903 0.00397405
0.00398924 0.00400442 0.00401958 0.00403477 0.00405 0.00406541 0.0040808 0.00409618 0.00411157 0.00412702
0.00414265 0.00415826 0.00417385 0.00418947 0.00420514 0.00422098 0.0042368 0.00425262 0.00426846 0.00428435
0.00430041 0.00431646 0.0043325 0.00434857 0.00436468 0.00438095 0.00439723 0.0044135 0.00442979 0.00444612
0.00446262 0.00447912 0.00449562 0.00451214 0.00452869 0.00454542 0.00456215 0.00457887 0.00459562 0.0046124
0.00462935 0.00464631 0.00466326 0.00468024 0.00469725 0.00471443 0.00473162 0.0047488 0.00476601 0.00478325
0.00480066 0.00481807 0.0048355 0.00485294 0.00487041 0.00488805 0.0049057 0.00492335 0.00494103 0.00495873
0.00497661 0.00499449 0.00501238 0.00503029 0.00504823 0.00506633 0.00508445 0.00510258 0.00512073 0.0051389
0.00515724 0.00517559 0.00519396 0.00521235 0.00523075 0.00524933 0.00526792 0.00528653 0.00530515 0.00532379
0.00534261 0.00536144 0.00538029 0.00539915 0.00541803 0.00543709 0.00545616 0.00547524 0.00549435 0.00551347
0.00553277 0.00555208 0.00557141 0.00559076 0.00561012 0.00562966 0.00564921 0.00566878 0.00568837 0.00570798
0.00572776 0.00574756 0.00576738 0.00578721 0.00580707 0.00582709 0.00584714 0.0058672 0.00588728 0.00590738
0.00591876 0.00593015 0.00594154 0.00595294 0.00596408 0.00597305 0.00598201 0.00599099 0.00599996 0.00600894
0.00602947 0.00605001 0.00607057 0.00609115 0.00611174 0.00613252 0.00615331 0.00617412 0.00619495 0.0062158
0.00623683 0.00625788 0.00627894 0.00630003 0.00632113 0.00634242 0.00636372 0.00638504 0.00640638 0.00642775
0.00644928 0.00647085 0.00649243 0.00651403 0.00653565 0.00655745 0.00657927 0.00660111 0.00662297 0.00664485
0.00666691 0.00668899 0.00671109 0.00673322 0.00675536 0.00677768 0.00680002 0.00682239 0.00684478 0.00686718
0.00688977 0.00691238 0.00693502 0.00695767 0.00698034 0.0070032 0.00702608 0.00704898 0.00707191 0.00709485
0.00711797 0.00714112 0.0071643 0.0071875 0.00721071 0.00723411 0.00725753 0.00728098 0.00730446 0.00732794
0.00735162 0.00737532 0.00739905 0.0074228 0.00744656 0.00747051 0.0074945 0.00751851 0.00754254 0.00756658
0.00759082 0.00761508 0.00763938 0.00766369 0.00768802 0.00771254 0.0077371 0.00776168 0.00778628 0.00781089
0.00783571 0.00786056 0.00788543 0.00791032 0.00793522 0.00796034 0.00798548 0.00801064 0.00803583 0.00806103
0.00808644 0.00811189 0.00813735 0.00816283 0.00818834 0.00821405 0.0082398 0.00826557 0.00829136 0.00831717
0.00834319 0.00836925 0.00839532 0.00842142 0.00844754 0.00847388 0.00850025 0.00852664 0.00855305 0.00857948
0.00860427 0.00862908 0.00865391 0.00867876 0.00870214 0.00870432 0.0087065 0.00870867 0.00871085 0.00871303
0.00874002 0.00876703 0.00879407 0.00882113 0.00884821 0.00887553 0.00890287 0.00893024 0.00895764 0.00898506
0.00901272 0.0090404 0.00906811 0.00909585 0.00912362 0.00915162 0.00917965 0.00920771 0.0092358 0.00926392
0.00929227 0.00932065 0.00934907 0.00937752 0.00940599 0.00943469 0.00946344 0.00949222 0.00952103 0.00954986
0.00957894 0.00960805 0.0096372 0.00966639 0.00969559 0.00972504 0.00975453 0.00978406 0.00981362 0.0098432
0.00987303 0.00990291 0.00993283 0.00996277 0.00999275 0.010023 0.0100532 0.0100836 0.0101139 0.0101443
0.0101749 0.0102056 0.0102363 0.010267 0.0102978 0.0103288 0.0103599 0.010391 0.0104222 0.0104534
0.0104849 0.0105164 0.0105479 0.0105795 0.0106111 0.010643 0.010675 0.0107069 0.0107389 0.010771
0.0107842 0.0107975 0.0108107 0.010824 0.0108369 0.0108561 0.0108754 0.0108946 0.0109139 0.0109332
0.010966 0.0109988 0.0110317 0.0110647 0.0110976 0.0111309 0.0111642 0.0111976 0.011231 0.0112645
0.0112983 0.0113321 0.011366 0.0113999 0.0114339 0.0114681 0.0115025 0.0115369 0.0115713 0.0116058
0.0116406 0.0116754 0.0117103 0.0117453 0.0117803 0.0118157 0.0118511 0.0118865 0.011922 0.0119576
0.0119935 0.0120294 0.0120654 0.0121015 0.0121377 0.0121741 0.0122106 0.0122472 0.0122839 0.0123206
0.0123576 0.0123948 0.012432 0.0124692 0.0125065 0.012509 0.0125115 0.012514 0.0125164 0.0125189
0.0125541 0.0125894 0.0126247 0.0126601 0.0126955 0.0127338 0.0127721 0.0128106 0.012849 0.0128876
0.0129265 0.0129655 0.0130046 0.0130437 0.0130829 0.0131225 0.0131621 0.0132019 0.0132417 0.0132815
0.0133218 0.0133622 0.0134026 0.0134431 0.0134837 0.0135246 0.0135657 0.0136068 0.013648 0.0136894
0.0137311 0.0137729 0.0138148 0.0138567 0.0138988 0.0139349 0.0139711 0.0140074 0.0140437 0.0140782
0.014085 0.0140918 0.0140986 0.0141054 0.0141122 0.0141554 0.0141988 0.0142422 0.0142858 0.0143294
0.0143735 0.0144177 0.014462 0.0145063 0.0145508 0.0145958 0.0146408 0.0146859 0.0147311 0.0147765
0.0148223 0.0148682 0.0149142 0.0149603 0.0150066 0.0150533 0.0151001 0.015147 0.0151941 0.0152413
0.0152889 0.0153367 0.0153846 0.0154326 0.0154808 0.0155015 0.0155223 0.015543 0.0155638 0.0155841
0.0156123 0.0156405 0.0156688 0.0156971 0.0157255 0.0157751 0.0158249 0.0158748 0.0159249 0.0159751
0.0160258 0.0160767 0.0161277 0.0161788 0.0162301 0.0162819 0.0163339 0.016386 0.0164383 0.0164907
0.0165437 0.0165968 0.0166501 0.0167035 0.0167571 0.0168113 0.0168656 0.0169201 0.0169748 0.0170296
0.0170398 0.0170499 0.0170601 0.0170702 0.0170802 0.0171257 0.0171713 0.0172169 0.0172627 0.0173086
0.0173654 0.0174223 0.0174793 0.0175366 0.017594 0.0176521 0.0177104 0.0177688 0.0178274 0.0178863
0.0179457 0.0180054 0.0180653 0.0181253 0.0181856 0.0182466 0.0183078 0.0183691 0.0184307 0.0184925
0.0185134 0.0185343 0.0185552 0.0185761 0.0185967 0.0186386 0.0186807 0.0187229 0.0187652 0.0188075
0.0188717 0.018936 0.0190005 0.0190653 0.0191304 0.0191962 0.0192622 0.0193284 0.0193949 0.0194617
0.0195292 0.019597 0.0196651 0.0197333 0.0198019 0.0198713 0.0199409 0.0200109 0.020081 0.0201515
0.0201527 0.0201538 0.0201549 0.020156 0.0201571 0.0202273 0.0202978 0.0203685 0.0204396 0.0205109
0.0205842 0.0206578 0.0207317 0.0208058 0.0208804 0.0209558 0.0210315 0.0211075 0.0211838 0.0212605
0.0213381 0.021416 0.0214942 0.0215728 0.0216518 0.0216779 0.0217041 0.0217303 0.0217565 0.0217824
0.0218367 0.0218911 0.0219456 0.0220004 0.0220553 0.0221376 0.0222203 0.0223033 0.0223867 0.0224705
0.0225554 0.0226406 0.0227262 0.0228121 0.0228986 0.022986 0.0230739 0.0231622 0.0232509 0.0233401
0.0233705 0.023401 0.0234315 0.023462 0.0234922 0.0235526 0.0236132 0.023674 0.023735 0.0237962
0.0238894 0.023983 0.024077 0.0241715 0.0242665 0.0243627 0.0244593 0.0245564 0.024654 0.0247521
0.0248515 0.0249513 0.0250517 0.0251525 0.025254 0.0252646 0.0252752 0.0252858 0.0252964 0.025307
0.0253993 0.0254921 0.0255853 0.0256789 0.025773 0.0258791 0.0259858 0.026093 0.0262008 0.0263092
0.0264189 0.0265292 0.0266401 0.0267516 0.0268637 0.0269405 0.0270175 0.0270949 0.0271724 0.0272487
0.0272865 0.0273243 0.0273622 0.0274002 0.0274383 0.0275558 0.0276739 0.0277926 0.0279119 0.028032
0.0281535 0.0282757 0.0283986 0.028522 0.0286463 0.0287721 0.0288985 0.0290257 0.0291535 0.0292821
0.029294 0.0293059 0.0293178 0.0293297 0.0293415 0.0294602 0.0295794 0.0296992 0.0298196 0.0299406
0.0300752 0.0302107 0.0303468 0.0304837 0.0306213 0.0307606 0.0309006 0.0310414 0.031183 0.0313253
0.0313825 0.0314399 0.0314974 0.031555 0.0316125 0.0317002 0.0317883 0.0318766 0.0319652 0.0320541
0.0322031 0.0323528 0.0325034 0.0326547 0.0328068 0.0329607 0.0331155 0.0332711 0.0334275 0.0335846
0.0336626 0.0337409 0.0338193 0.033898 0.0339767 0.0340587 0.0341409 0.0342233 0.0343059 0.0343887
0.0345528 0.0347177 0.0348835 0.03505 0.0352172 0.0353864 0.0355564 0.0357272 0.0358988 0.0360711
0.0361591 0.0362474 0.0363359 0.0364246 0.0365141 0.0366011 0.0366883 0.0367757 0.0368633 0.036951
0.0371303 0.0373103 0.0374912 0.0376727 0.0378548 0.0380389 0.0382238 0.0384095 0.0385958 0.0387826
0.038879 0.0389756 0.0390723 0.0391692 0.0392677 0.0393608 0.039454 0.0395474 0.0396409 0.0397344
0.0399279 0.040122 0.0403168 0.0405121 0.0407077 0.0409054 0.0411038 0.0413027 0.0415022 0.0417019
0.0418188 0.0419359 0.0420532 0.0421706 0.0422913 0.0423761 0.042461 0.042546 0.042631 0.042716
0.0429215 0.0431275 0.0433338 0.0435406 0.0437474 0.0439562 0.0441654 0.044375 0.044585 0.0447948
0.0449646 0.0451347 0.045305 0.0454754 0.0456548 0.0456951 0.0457354 0.0457757 0.045816 0.0458563
0.0460708 0.0462854 0.0465002 0.0467151 0.0469298 0.0471464 0.047363 0.0475799 0.0477968 0.0480133
0.0482316 0.04845 0.0486684 0.0488867 0.0491047 0.0491757 0.0492467 0.0493177 0.0493887 0.0494617
0.0496099 0.049758 0.0499061 0.0500541 0.0502018 0.0504224 0.0506429 0.0508633 0.0510835 0.051303
0.0515241 0.0517451 0.0519658 0.0521864 0.0524061 0.0526274 0.0528485 0.0530693 0.0532897 0.0535094
0.0535933 0.0536772 0.053761 0.0538448 0.0539334 0.0540692 0.0542047 0.0543401 0.0544754 0.0546103
0.0548308 0.055051 0.0552706 0.0554898 0.055708 0.0559274 0.0561463 0.0563647 0.0565825 0.0567993
0.0570173 0.0572349 0.057452 0.0576683 0.057883 0.05809 0.0582966 0.0585023 0.0587072 0.0589109
0.0589196 0.0589283 0.0589371 0.0589458 0.0589546 0.0591565 0.0593574 0.0595573 0.0597563 0.0599539
0.0601672 0.0603794 0.0605904 0.0608003 0.0610086 0.0612239 0.0614379 0.0616505 0.0618619 0.0620717
0.0621823 0.0622926 0.0624025 0.062512 0.0626326 0.0627343 0.0628357 0.0629367 0.0630373 0.0631376
0.0633548 0.0635704 0.0637843 0.0639967 0.0642074 0.0644246 0.0646401 0.0648539 0.065066 0.0652763
0.0654931 0.065708 0.0659212 0.0661325 0.0663421 0.0664772 0.0666116 0.0667453 0.0668782 0.0670303
0.0671048 0.067179 0.0672531 0.0673269 0.0674005 0.067615 0.0678277 0.0680384 0.0682471 0.0684541
0.0686671 0.0688781 0.0690871 0.0692942 0.0694994 0.0697106 0.0699197 0.0701268 0.0703319 0.0705352
0.0707443 0.0709513 0.0711563 0.0713593 0.0715604 0.0717515 0.0719409 0.0721284 0.0723142 0.0725477
0.072553 0.0725583 0.0725636 0.0725689 0.0725741 0.0727786 0.072981 0.0731814 0.0733797 0.0735761
0.0737782 0.0739781 0.074176 0.0743719 0.0745659 0.0747654 0.0749628 0.0751581 0.0753514 0.0755429
0.0757399 0.0759347 0.0761275 0.0763183 0.0765072 0.0767015 0.0768937 0.0770837 0.0772719 0.0774582
0.0776498 0.0778394 0.078027 0.0782125 0.0783962 0.0785849 0.0787715 0.0789562 0.079139 0.07932
0.0795061 0.0796903 0.0798722 0.0800522 0.0802301 0.0802856 0.0803409 0.0803961 0.0804511 0.0805129
0.0806367 0.0807596 0.0808816 0.0810029 0.0811233 0.0813039 0.0814824 0.0816585 0.0818322 0.0820036
0.0821785 0.0823498 0.0825192 0.0826867 0.0828527 -9.99997e-06 -7.99997e-06 -5.99998e-06 -3.99998e-06 -1.99999e-06
0 2.96566e-05 5.93127e-05 8.89677e-05 0.000118621 0.000148273 0.000178656 0.000209037 0.000239415 0.000269789
0.000300159 0.00032931 0.000358456 0.000387597 0.000416733 0.000445864 0.000473826 0.000501783 0.000529736 0.000557683
0.000585626 0.000612448 0.000639265 0.000666079 0.000692888 0.000719693 0.000745422 0.000771148 0.00079687 0.000822588
0.000848302 0.000872985 0.000897664 0.000922339 0.000947011 0.00097168 0.000995359 0.00101904 0.00104271 0.00106638
0.00109004 0.00111276 0.00113548 0.00115819 0.0011809 0.00120361 0.0012254 0.0012472 0.00126899 0.00129078
0.00131256 0.00133348 0.00135439 0.0013753 0.0013962 0.00141711 0.00143717 0.00145724 0.0014773 0.00149736
0.00151742 0.00153668 0.00155593 0.00157518 0.00159443 0.00161368 0.00163215 0.00165063 0.0016691 0.00168757
0.00170604 0.00172377 0.0017415 0.00175923 0.00177695 0.00179468 0.00181169 0.0018287 0.00184572 0.00186272
0.00187973 0.00189606 0.00191239 0.00192871 0.00194503 0.00196135 0.00197702 0.00199269 0.00200835 0.00202402
0.00203968 0.00205014 0.0020606 0.00207105 0.00208151 0.00209196 0.00210249 0.00211303 0.00212356 0.0021341
0.00214463 0.00215524 0.00216585 0.00217647 0.00218708 0.00219769 0.00220838 0.00221908 0.00222977 0.00224046
0.00225115 0.00226193 0.0022727 0.00228347 0.00229425 0.00230502 0.00231587 0.00232673 0.00233758 0.00234844
0.00235929 0.00237023 0.00238116 0.0023921 0.00240303 0.00241397 0.00242499 0.00243601 0.00244703 0.00245805
0.00246906 0.00248017 0.00249127 0.00250237 0.00251348 0.00252458 0.00253577 0.00254695 0.00255814 0.00256933
0.00258051 0.00259179 0.00260306 0.00261433 0.00262561 0.00263688 0.00264824 0.0026596 0.00267095 0.00268231
0.00269367 0.00270512 0.00271656 0.00272801 0.00273945 0.0027509 0.00276243 0.00277397 0.0027855 0.00279703
0.00280857 0.00282019 0.00283181 0.00284343 0.00285506 0.00286668 0.00287839 0.0028901 0.00290181 0.00291352
0.00292523 0.00293704 0.00294884 0.00296064 0.00297244 0.00298424 0.00299613 0.00300802 0.00301992 0.00303181
0.0030437 0.00305568 0.00306767 0.00307965 0.00309163 0.00310362 0.00311569 0.00312777 0.00313985 0.00315192
0.003164 0.00317617 0.00318833 0.0032005 0.00321267 0.00322484 0.0032371 0.00324937 0.00326163 0.00327389
0.00328615 0.00329851 0.00331087 0.00332322 0.00333558 0.00334794 0.00336039 0.00337284 0.00338529 0.00339774
0.0034102 0.00342274 0.00343529 0.00344784 0.00346039 0.00347293 0.00348558 0.00349822 0.00351087 0.00352351
0.00353616 0.0035489 0.00356164 0.00357438 0.00358712 0.00359986 0.0036127 0.00362554 0.00363838 0.00365122
0.00366406 0.003677 0.00368994 0.00370288 0.00371582 0.00372875 0.00373582 0.00374289 0.00374996 0.00375703
0.00376408 0.00377005 0.00377602 0.003782 0.00378797 0.00379394 0.00380708 0.00382022 0.00383336 0.0038465
0.00385963 0.00387287 0.00388611 0.00389935 0.00391259 0.00392583 0.00393917 0.00395251 0.00396585 0.00397919
0.00399253 0.00400598 0.00401942 0.00403286 0.00404631 0.00405975 0.0040733 0.00408685 0.00410039 0.00411394
0.00412748 0.00414114 0.00415479 0.00416844 0.00418209 0.00419574 0.0042095 0.00422325 0.00423701 0.00425076
0.00426452 0.00427838 0.00429224 0.0043061 0.00431996 0.00433383 0.0043478 0.00436176 0.00437573 0.0043897
0.00440367 0.00441775 0.00443182 0.0044459 0.00445997 0.00447405 0.00448823 0.00450242 0.0045166 0.00453078
0.00454497 0.00455926 0.00457356 0.00458785 0.00460214 0.00461644 0.00463084 0.00464525 0.00465965 0.00467405
0.00468846 0.00470297 0.00471749 0.004732 0.00474652 0.00476103 0.00477566 0.00479029 0.00480491 0.00481954
0.00483417 0.00484891 0.00486365 0.00487839 0.00489313 0.00490787 0.00492273 0.00493758 0.00495243 0.00496729
0.00498214 0.00499712 0.00501209 0.00502705 0.00504202 0.00505699 0.00507208 0.00508717 0.00510225 0.00511734
0.00513242 0.00514763 0.00516284 0.00517804 0.00519324 0.00520845 0.00522377 0.00523909 0.00525442 0.00526974
0.00528506 0.00530051 0.00531595 0.00533139 0.00534683 0.00536228 0.00537784 0.0053934 0.00540897 0.00542453
0.0054401 0.00545579 0.00547147 0.00548716 0.00550284 0.00551853 0.00553434 0.00555015 0.00556596 0.00558177
0.00559759 0.00561352 0.00562946 0.0056454 0.00566133 0.00567727 0.00569333 0.0057094 0.00572546 0.00574152
0.00575759 0.00577378 0.00578997 0.00580616 0.00582236 0.00583855 0.00584892 0.00585929 0.00586966 0.00588003
0.00589026 0.00589624 0.00590222 0.0059082 0.00591418 0.00592016 0.00593662 0.00595307 0.00596953 0.00598598
0.00600244 0.00601903 0.00603562 0.0060522 0.00606879 0.00608538 0.00610211 0.00611884 0.00613556 0.00615229
0.00616901 0.00618589 0.00620275 0.00621961 0.00623647 0.00625333 0.00627035 0.00628735 0.00630435 0.00632135
0.00633836 0.00635552 0.00637267 0.00638981 0.00640695 0.00642411 0.00644142 0.00645871 0.006476 0.00649328
0.00651059 0.00652805 0.00654549 0.00656292 0.00658036 0.00659781 0.00661543 0.00663303 0.00665061 0.00666819
0.0066858 0.00670357 0.00672133 0.00673906 0.00675679 0.00677456 0.0067925 0.00681041 0.0068283 0.00684619
0.00686412 0.00688222 0.00690029 0.00691835 0.0069364 0.00695449 0.00697276 0.006991 0.00700921 0.00702744
0.00704569 0.00706412 0.00708253 0.00710092 0.00711931 0.00713773 0.00715634 0.00717492 0.00719348 0.00721205
0.00723065 0.00724943 0.00726818 0.00728693 0.00730568 0.00732446 0.00734342 0.00736235 0.00738128 0.00740022
0.00741917 0.00743831 0.00745742 0.00747654 0.00749567 0.00751481 0.00753414 0.00755344 0.00757276 0.00759208
0.00761142 0.00763093 0.00765043 0.00766994 0.00768946 0.007709 0.0077287 0.0077484 0.00776812 0.00778784
0.00780758 0.00780949 0.00781141 0.00781333 0.00781524 0.00781715 0.00783514 0.00785314 0.00787114 0.00788916
0.00790718 0.0079273 0.00794742 0.00796755 0.0079877 0.00800785 0.0080282 0.00804853 0.00806888 0.00808924
0.00810961 0.00813018 0.00815073 0.0081713 0.00819188 0.00821248 0.00823329 0.00825407 0.00827486 0.00829566
0.0083165 0.00833755 0.00835857 0.00837959 0.00840062 0.0084217 0.00844299 0.00846427 0.00848552 0.00850678
0.0085281 0.00854965 0.00857117 0.00859267 0.00861418 0.00863576 0.00865756 0.00867933 0.00870109 0.00872286
0.00874469 0.00876674 0.00878878 0.0088108 0.00883283 0.00885492 0.00887724 0.00889954 0.00892184 0.00894415
0.00896651 0.0089891 0.00901167 0.00903425 0.00905685 0.00907947 0.00910234 0.00912519 0.00914805 0.00917094
0.00919386 0.009217 0.00924014 0.00926331 0.0092865 0.00930971 0.00932881 0.00934791 0.00936703 0.00938616
0.00940459 0.00940908 0.00941358 0.00941807 0.00942257 0.00942707 0.0094508 0.00947455 0.00949833 0.00952213
0.00954596 0.00957001 0.00959407 0.00961817 0.00964229 0.00966643 0.00969082 0.0097152 0.00973962 0.00976406
0.00978854 0.00981326 0.00983799 0.00986274 0.00988751 0.00991233 0.0099374 0.00996247 0.00998756 0.0100127
0.0100378 0.0100633 0.0100887 0.0101141 0.0101396 0.0101651 0.0101909 0.0102167 0.0102425 0.0102683