/*--------------------------------*- C++ -*----------------------------------*\
  =========                 |
  \\      /  F ield         | OpenFOAM: The Open Source CFD Toolbox
   \\    /   O peration     | Website:  https://openfoam.org
    \\  /    A nd           | Version:  11
     \\/     M anipulation  |
\*---------------------------------------------------------------------------*/
FoamFile
{
    format      ascii;
    class       volScalarField;
    location    "6";
    object      epsilon;
}
// * * * * * * * * * * * * * * * * * * * * * * * * * * * * * * * * * * * * * //

dimensions      [0 2 -3 0 0 0 0];

internalField   nonuniform List<scalar> 
700
(
4.25347e-05
4.25347e-05
4.25347e-05
4.25347e-05
4.25347e-05
4.25347e-05
4.25347e-05
4.25347e-05
4.25347e-05
4.25347e-05
4.25347e-05
4.25347e-05
4.25347e-05
4.25347e-05
4.25347e-05
4.25347e-05
4.25347e-05
4.25347e-05
4.25347e-05
4.25347e-05
4.25347e-05
4.25347e-05
4.25347e-05
4.25347e-05
4.25347e-05
4.25347e-05
4.25347e-05
4.25347e-05
4.25347e-05
4.25347e-05
4.25347e-05
4.25347e-05
4.25347e-05
4.25347e-05
4.25347e-05
4.25347e-05
4.25347e-05
4.25347e-05
4.25347e-05
4.25347e-05
4.25347e-05
4.25347e-05
4.25347e-05
4.25347e-05
4.25347e-05
4.25347e-05
4.25347e-05
4.25347e-05
4.25347e-05
4.25347e-05
4.25347e-05
4.25347e-05
4.25347e-05
4.25347e-05
4.25347e-05
4.25347e-05
4.25347e-05
4.25347e-05
4.25347e-05
4.25347e-05
4.25348e-05
4.25348e-05
4.25347e-05
4.25347e-05
4.25347e-05
4.25347e-05
4.25347e-05
4.25347e-05
4.25347e-05
4.25347e-05
4.25364e-05
4.25358e-05
4.25352e-05
4.25349e-05
4.25348e-05
4.25347e-05
4.25347e-05
4.25346e-05
4.25344e-05
4.25341e-05
4.25747e-05
4.25586e-05
4.25451e-05
4.25383e-05
4.25359e-05
4.25351e-05
4.25344e-05
4.25323e-05
4.25273e-05
4.25201e-05
4.32572e-05
4.29043e-05
4.26801e-05
4.25813e-05
4.25474e-05
4.25366e-05
4.25265e-05
4.25001e-05
4.24319e-05
4.22776e-05
4.68026e-05
4.45741e-05
4.32832e-05
4.27745e-05
4.25937e-05
4.25223e-05
4.24673e-05
4.23998e-05
4.23189e-05
4.23e-05
4.57732e-05
4.47409e-05
4.35897e-05
4.29806e-05
4.27021e-05
4.25841e-05
4.25232e-05
4.2466e-05
4.23894e-05
4.23186e-05
4.44331e-05
4.43261e-05
4.36056e-05
4.31121e-05
4.28201e-05
4.26656e-05
4.25877e-05
4.25403e-05
4.24925e-05
4.24338e-05
4.28518e-05
4.34587e-05
4.32552e-05
4.30309e-05
4.28462e-05
4.27166e-05
4.26354e-05
4.25868e-05
4.25529e-05
4.25181e-05
4.11869e-05
4.22598e-05
4.25473e-05
4.26578e-05
4.2676e-05
4.26544e-05
4.26225e-05
4.25936e-05
4.25709e-05
4.25512e-05
3.97152e-05
4.09887e-05
4.16448e-05
4.20559e-05
4.2299e-05
4.2433e-05
4.25006e-05
4.25307e-05
4.25415e-05
4.25428e-05
3.8748e-05
4.002e-05
4.08754e-05
4.14753e-05
4.1882e-05
4.21476e-05
4.23143e-05
4.24145e-05
4.24719e-05
4.2503e-05
3.85195e-05
3.96918e-05
4.05827e-05
4.12312e-05
4.16902e-05
4.20051e-05
4.22141e-05
4.2348e-05
4.24305e-05
4.24789e-05
3.914e-05
4.01549e-05
4.09207e-05
4.14709e-05
4.18565e-05
4.21194e-05
4.22938e-05
4.24076e-05
4.24821e-05
4.25329e-05
4.07094e-05
4.13061e-05
4.17184e-05
4.20171e-05
4.22258e-05
4.23682e-05
4.2467e-05
4.25432e-05
4.26154e-05
4.26993e-05
4.21671e-05
4.21058e-05
4.21922e-05
4.23011e-05
4.23933e-05
4.2462e-05
4.25119e-05
4.25505e-05
4.25834e-05
4.26098e-05
4.23544e-05
4.23492e-05
4.23776e-05
4.24208e-05
4.24626e-05
4.24967e-05
4.25228e-05
4.2543e-05
4.25588e-05
4.25696e-05
4.24575e-05
4.24588e-05
4.24691e-05
4.24853e-05
4.25025e-05
4.25175e-05
4.25295e-05
4.25388e-05
4.25459e-05
4.25502e-05
4.25059e-05
4.25068e-05
4.25102e-05
4.25158e-05
4.25221e-05
4.2528e-05
4.25329e-05
4.25368e-05
4.25397e-05
4.25413e-05
4.25257e-05
4.2526e-05
4.25269e-05
4.25286e-05
4.25306e-05
4.25326e-05
4.25344e-05
4.25358e-05
4.25369e-05
4.25374e-05
4.25327e-05
4.25327e-05
4.25328e-05
4.25332e-05
4.25337e-05
4.25342e-05
4.25348e-05
4.25353e-05
4.25356e-05
4.25358e-05
4.25346e-05
4.25346e-05
4.25345e-05
4.25345e-05
4.25346e-05
4.25347e-05
4.25349e-05
4.2535e-05
4.25351e-05
4.25351e-05
4.2535e-05
4.25349e-05
4.25349e-05
4.25348e-05
4.25348e-05
4.25348e-05
4.25348e-05
4.25348e-05
4.25349e-05
4.25349e-05
4.25349e-05
4.25349e-05
4.25349e-05
4.25348e-05
4.25348e-05
4.25348e-05
4.25348e-05
4.25348e-05
4.25348e-05
4.25348e-05
4.25348e-05
4.25348e-05
4.25348e-05
4.25348e-05
4.25348e-05
4.25348e-05
4.25347e-05
4.25347e-05
4.25347e-05
4.25347e-05
4.25347e-05
4.25347e-05
4.25347e-05
4.25347e-05
4.25347e-05
4.25347e-05
4.25347e-05
4.25347e-05
4.25347e-05
4.25347e-05
4.25347e-05
4.25347e-05
4.25347e-05
4.25347e-05
4.25347e-05
4.25347e-05
4.25347e-05
4.25347e-05
4.25347e-05
4.25347e-05
4.25347e-05
4.25347e-05
4.25347e-05
4.25347e-05
4.25347e-05
4.25347e-05
4.25347e-05
4.25347e-05
4.25347e-05
4.25347e-05
4.25347e-05
4.25347e-05
4.25347e-05
4.25347e-05
4.25347e-05
4.25347e-05
4.25347e-05
4.25347e-05
4.25347e-05
4.25347e-05
4.25347e-05
4.25347e-05
4.25347e-05
4.25347e-05
4.25347e-05
4.25347e-05
4.25347e-05
4.25347e-05
4.25347e-05
4.25347e-05
4.25347e-05
4.25347e-05
4.25347e-05
4.25347e-05
4.25347e-05
4.25347e-05
4.25347e-05
4.25347e-05
4.25347e-05
4.25347e-05
4.25347e-05
4.25347e-05
4.25347e-05
4.25347e-05
4.25347e-05
4.25347e-05
4.25347e-05
4.25347e-05
4.25347e-05
4.25347e-05
4.25347e-05
4.25347e-05
4.25347e-05
4.25347e-05
4.25347e-05
4.25347e-05
4.25347e-05
4.25347e-05
4.25347e-05
4.25347e-05
4.25347e-05
4.25347e-05
4.25347e-05
4.25347e-05
4.25347e-05
4.25347e-05
4.25347e-05
4.25347e-05
4.25347e-05
4.25347e-05
4.25347e-05
4.25347e-05
4.25347e-05
4.25347e-05
4.25347e-05
4.25347e-05
4.25347e-05
4.25347e-05
4.25347e-05
4.25347e-05
4.26711e-05
4.26985e-05
4.2729e-05
4.27576e-05
4.27788e-05
4.27903e-05
4.27923e-05
4.27826e-05
4.27658e-05
4.27469e-05
4.26136e-05
4.26407e-05
4.26675e-05
4.26846e-05
4.26861e-05
4.26729e-05
4.26491e-05
4.26196e-05
4.25892e-05
4.25596e-05
4.25855e-05
4.26035e-05
4.26181e-05
4.26214e-05
4.2611e-05
4.25908e-05
4.25663e-05
4.25421e-05
4.25202e-05
4.2501e-05
4.25744e-05
4.25848e-05
4.25894e-05
4.25847e-05
4.25718e-05
4.25554e-05
4.25398e-05
4.25272e-05
4.25181e-05
4.25123e-05
4.25789e-05
4.25864e-05
4.25834e-05
4.25729e-05
4.25593e-05
4.25467e-05
4.25375e-05
4.25325e-05
4.25314e-05
4.25353e-05
4.26016e-05
4.26153e-05
4.26054e-05
4.25859e-05
4.25663e-05
4.25513e-05
4.25417e-05
4.25366e-05
4.25353e-05
4.25377e-05
4.26491e-05
4.26876e-05
4.267e-05
4.26326e-05
4.25963e-05
4.25686e-05
4.2549e-05
4.25344e-05
4.25209e-05
4.25057e-05
4.27337e-05
4.28337e-05
4.28076e-05
4.27381e-05
4.26685e-05
4.26113e-05
4.25635e-05
4.25151e-05
4.24562e-05
4.23897e-05
4.28766e-05
4.31037e-05
4.30668e-05
4.29474e-05
4.28236e-05
4.27118e-05
4.2597e-05
4.24459e-05
4.2229e-05
4.19936e-05
4.30331e-05
4.35713e-05
4.35811e-05
4.34519e-05
4.33049e-05
4.31545e-05
4.29538e-05
4.259e-05
4.18635e-05
4.04713e-05
4.26168e-05
4.25896e-05
4.25697e-05
4.25593e-05
4.25563e-05
4.25571e-05
4.25552e-05
4.2534e-05
4.24478e-05
4.21622e-05
4.25715e-05
4.2563e-05
4.25535e-05
4.2546e-05
4.25399e-05
4.25324e-05
4.25182e-05
4.24887e-05
4.24325e-05
4.23519e-05
4.25508e-05
4.25477e-05
4.25431e-05
4.25382e-05
4.25325e-05
4.25244e-05
4.25115e-05
4.2491e-05
4.24629e-05
4.2436e-05
4.25415e-05
4.25401e-05
4.25378e-05
4.25348e-05
4.25308e-05
4.25249e-05
4.25164e-05
4.25047e-05
4.24914e-05
4.24813e-05
4.25374e-05
4.25368e-05
4.25356e-05
4.25339e-05
4.25315e-05
4.2528e-05
4.25232e-05
4.25172e-05
4.25111e-05
4.2507e-05
4.25357e-05
4.25354e-05
4.25349e-05
4.2534e-05
4.25327e-05
4.25309e-05
4.25284e-05
4.25256e-05
4.25229e-05
4.25212e-05
4.25351e-05
4.25349e-05
4.25347e-05
4.25343e-05
4.25336e-05
4.25328e-05
4.25317e-05
4.25304e-05
4.25293e-05
4.25286e-05
4.25348e-05
4.25348e-05
4.25347e-05
4.25345e-05
4.25342e-05
4.25338e-05
4.25334e-05
4.25328e-05
4.25324e-05
4.25321e-05
4.25348e-05
4.25347e-05
4.25347e-05
4.25346e-05
4.25345e-05
4.25343e-05
4.25342e-05
4.2534e-05
4.25338e-05
4.25337e-05
4.25347e-05
4.25347e-05
4.25347e-05
4.25347e-05
4.25346e-05
4.25346e-05
4.25345e-05
4.25344e-05
4.25343e-05
4.25343e-05
4.25347e-05
4.25347e-05
4.25347e-05
4.25347e-05
4.25347e-05
4.25347e-05
4.25347e-05
4.25347e-05
4.25347e-05
4.25347e-05
4.25347e-05
4.25347e-05
4.25347e-05
4.25347e-05
4.25347e-05
4.25347e-05
4.25347e-05
4.25347e-05
4.25347e-05
4.25347e-05
4.25347e-05
4.25347e-05
4.25347e-05
4.25347e-05
4.25347e-05
4.25347e-05
4.25347e-05
4.25347e-05
4.25347e-05
4.25347e-05
4.25347e-05
4.25347e-05
4.25347e-05
4.25347e-05
4.25347e-05
4.25347e-05
4.25347e-05
4.25347e-05
4.25347e-05
4.25347e-05
4.25347e-05
4.25347e-05
4.25347e-05
4.25347e-05
4.25347e-05
4.25347e-05
4.25347e-05
4.25347e-05
4.25347e-05
4.25347e-05
4.25347e-05
4.25347e-05
4.25347e-05
4.25347e-05
4.25347e-05
4.25347e-05
4.25347e-05
4.25347e-05
4.25347e-05
4.25347e-05
4.25347e-05
4.25347e-05
4.25347e-05
4.25347e-05
4.25347e-05
4.25347e-05
4.25347e-05
4.25347e-05
4.25347e-05
4.25347e-05
4.25347e-05
4.25347e-05
4.25347e-05
4.25347e-05
4.25347e-05
4.25347e-05
4.25347e-05
4.25347e-05
4.25347e-05
4.25347e-05
4.25347e-05
4.25347e-05
4.25347e-05
4.25347e-05
4.25347e-05
4.25347e-05
4.25347e-05
4.25347e-05
4.25347e-05
4.25347e-05
4.25347e-05
4.25347e-05
4.25347e-05
4.25347e-05
4.25347e-05
4.25347e-05
4.25347e-05
4.25347e-05
4.25347e-05
4.25347e-05
)
;

boundaryField
{
    defaultFaces
    {
        type            empty;
    }
}


// ************************************************************************* //
