/*--------------------------------*- C++ -*----------------------------------*\
  =========                 |
  \\      /  F ield         | OpenFOAM: The Open Source CFD Toolbox
   \\    /   O peration     | Website:  https://openfoam.org
    \\  /    A nd           | Version:  11
     \\/     M anipulation  |
\*---------------------------------------------------------------------------*/
FoamFile
{
    format      ascii;
    class       volScalarField;
    location    "6";
    object      k;
}
// * * * * * * * * * * * * * * * * * * * * * * * * * * * * * * * * * * * * * //

dimensions      [0 2 -2 0 0 0 0];

internalField   nonuniform List<scalar> 
700
(
0.000256516
0.000256516
0.000256516
0.000256516
0.000256516
0.000256516
0.000256516
0.000256516
0.000256516
0.000256516
0.000256516
0.000256516
0.000256516
0.000256516
0.000256516
0.000256516
0.000256516
0.000256516
0.000256516
0.000256516
0.000256516
0.000256516
0.000256516
0.000256516
0.000256516
0.000256516
0.000256516
0.000256516
0.000256516
0.000256516
0.000256516
0.000256516
0.000256516
0.000256516
0.000256516
0.000256516
0.000256516
0.000256516
0.000256516
0.000256516
0.000256516
0.000256516
0.000256516
0.000256516
0.000256516
0.000256516
0.000256516
0.000256516
0.000256516
0.000256516
0.000256516
0.000256516
0.000256516
0.000256516
0.000256516
0.000256516
0.000256516
0.000256516
0.000256516
0.000256516
0.000256516
0.000256516
0.000256516
0.000256516
0.000256516
0.000256516
0.000256516
0.000256516
0.000256515
0.000256515
0.000256529
0.000256525
0.00025652
0.000256517
0.000256516
0.000256516
0.000256515
0.000256514
0.000256513
0.000256511
0.00025681
0.000256698
0.0002566
0.000256547
0.000256526
0.000256518
0.000256511
0.000256494
0.000256459
0.00025641
0.000261401
0.000259128
0.000257604
0.000256887
0.000256619
0.000256521
0.000256432
0.000256236
0.00025578
0.000254815
0.000283615
0.000269862
0.000261669
0.000258273
0.000256976
0.000256419
0.000256001
0.000255529
0.000254992
0.000254847
0.00027727
0.000270907
0.000263666
0.000259685
0.000257767
0.000256894
0.000256416
0.000255989
0.000255462
0.000254985
0.000268671
0.000268097
0.000263668
0.000260524
0.000258584
0.000257502
0.000256917
0.000256541
0.00025618
0.000255763
0.000258487
0.000262331
0.000261202
0.000259859
0.000258697
0.000257842
0.000257276
0.000256913
0.000256646
0.000256379
0.000247872
0.000254528
0.00025644
0.00025724
0.00025743
0.000257335
0.000257146
0.000256956
0.000256793
0.000256642
0.000238598
0.000246403
0.00025053
0.000253183
0.000254803
0.000255733
0.000256226
0.000256461
0.000256554
0.000256572
0.000232568
0.000240299
0.000245582
0.00024936
0.000251982
0.000253744
0.000254884
0.000255595
0.000256019
0.00025626
0.000231188
0.000238278
0.000243739
0.000247784
0.000250709
0.000252768
0.000254176
0.000255108
0.000255705
0.000256073
0.000235099
0.000241234
0.000245927
0.000249362
0.000251825
0.000253549
0.000254725
0.000255511
0.000256031
0.000256379
0.000244839
0.000248467
0.000251026
0.000252927
0.000254291
0.000255242
0.000255902
0.000256381
0.000256778
0.000257171
0.000253851
0.000253514
0.000254092
0.000254821
0.000255449
0.000255925
0.000256267
0.000256516
0.000256706
0.000256843
0.000255141
0.00025513
0.000255339
0.000255646
0.000255946
0.000256193
0.000256379
0.000256516
0.000256616
0.000256679
0.000255884
0.000255904
0.000255988
0.000256113
0.000256245
0.000256359
0.00025645
0.000256518
0.000256566
0.000256594
0.000256256
0.000256268
0.0002563
0.000256348
0.000256401
0.000256449
0.000256489
0.000256519
0.00025654
0.000256552
0.000256422
0.000256427
0.000256438
0.000256454
0.000256473
0.000256491
0.000256507
0.000256519
0.000256527
0.000256532
0.000256488
0.000256489
0.000256492
0.000256497
0.000256503
0.000256509
0.000256514
0.000256518
0.000256521
0.000256523
0.00025651
0.00025651
0.00025651
0.000256511
0.000256513
0.000256514
0.000256516
0.000256517
0.000256518
0.000256518
0.000256516
0.000256516
0.000256515
0.000256515
0.000256516
0.000256516
0.000256516
0.000256516
0.000256517
0.000256517
0.000256517
0.000256516
0.000256516
0.000256516
0.000256516
0.000256516
0.000256516
0.000256516
0.000256516
0.000256516
0.000256516
0.000256516
0.000256516
0.000256516
0.000256516
0.000256516
0.000256516
0.000256516
0.000256516
0.000256516
0.000256516
0.000256516
0.000256516
0.000256516
0.000256516
0.000256516
0.000256516
0.000256516
0.000256516
0.000256516
0.000256516
0.000256516
0.000256516
0.000256516
0.000256516
0.000256516
0.000256516
0.000256516
0.000256516
0.000256516
0.000256516
0.000256516
0.000256516
0.000256516
0.000256516
0.000256516
0.000256516
0.000256516
0.000256516
0.000256516
0.000256516
0.000256516
0.000256516
0.000256516
0.000256516
0.000256516
0.000256516
0.000256516
0.000256516
0.000256516
0.000256516
0.000256516
0.000256516
0.000256516
0.000256516
0.000256516
0.000256516
0.000256516
0.000256516
0.000256516
0.000256516
0.000256516
0.000256516
0.000256516
0.000256516
0.000256516
0.000256516
0.000256516
0.000256516
0.000256516
0.000256516
0.000256516
0.000256516
0.000256516
0.000256516
0.000256516
0.000256516
0.000256516
0.000256516
0.000256516
0.000256516
0.000256516
0.000256516
0.000256516
0.000256516
0.000256516
0.000256516
0.000256516
0.000256516
0.000256516
0.000256516
0.000256516
0.000256516
0.000256516
0.000256516
0.000256516
0.000256516
0.000256516
0.000256516
0.000256516
0.000256516
0.000256516
0.000256516
0.000256516
0.000256516
0.000256516
0.000256516
0.000256516
0.000256516
0.000256516
0.000257105
0.000257211
0.000257327
0.000257433
0.00025751
0.000257549
0.000257552
0.000257511
0.000257443
0.000257364
0.00025689
0.000256995
0.000257096
0.000257155
0.00025715
0.000257085
0.000256975
0.000256838
0.000256693
0.000256545
0.00025679
0.000256863
0.000256916
0.000256919
0.000256861
0.000256759
0.000256634
0.000256502
0.000256373
0.000256247
0.000256767
0.000256813
0.000256824
0.000256789
0.000256715
0.000256623
0.000256532
0.000256452
0.000256387
0.000256339
0.000256826
0.00025687
0.000256844
0.000256774
0.000256685
0.000256603
0.000256541
0.000256502
0.000256492
0.000256518
0.000256993
0.00025709
0.000257028
0.000256897
0.000256761
0.000256652
0.000256579
0.000256537
0.000256523
0.00025654
0.000257313
0.00025758
0.00025748
0.000257235
0.000256986
0.000256786
0.000256637
0.00025652
0.00025641
0.000256291
0.000257858
0.000258525
0.00025839
0.000257951
0.000257488
0.00025709
0.000256741
0.000256378
0.000255946
0.000255483
0.00025875
0.000260216
0.000260037
0.000259302
0.000258504
0.000257753
0.000256955
0.000255906
0.00025446
0.000252977
0.000259712
0.000263077
0.000263196
0.000262409
0.000261466
0.000260462
0.000259101
0.000256707
0.000252148
0.000243742
0.000256887
0.000256786
0.00025671
0.000256675
0.000256675
0.000256695
0.000256698
0.000256585
0.000256077
0.000254363
0.000256695
0.000256663
0.000256623
0.000256589
0.000256559
0.00025652
0.00025644
0.000256267
0.000255932
0.000255448
0.000256601
0.000256587
0.000256565
0.000256538
0.000256504
0.000256456
0.000256377
0.000256253
0.000256083
0.00025592
0.000256554
0.000256547
0.000256534
0.000256515
0.000256489
0.000256451
0.000256396
0.000256323
0.000256241
0.000256178
0.000256532
0.000256528
0.000256521
0.000256509
0.000256492
0.000256468
0.000256436
0.000256397
0.000256357
0.000256331
0.000256522
0.00025652
0.000256516
0.000256509
0.0002565
0.000256486
0.000256469
0.00025645
0.000256432
0.00025642
0.000256518
0.000256517
0.000256515
0.000256512
0.000256507
0.0002565
0.000256492
0.000256483
0.000256475
0.00025647
0.000256517
0.000256516
0.000256515
0.000256513
0.000256511
0.000256508
0.000256504
0.0002565
0.000256497
0.000256495
0.000256516
0.000256516
0.000256515
0.000256515
0.000256514
0.000256512
0.000256511
0.000256509
0.000256508
0.000256507
0.000256516
0.000256516
0.000256515
0.000256515
0.000256515
0.000256514
0.000256513
0.000256513
0.000256512
0.000256512
0.000256516
0.000256516
0.000256516
0.000256516
0.000256516
0.000256516
0.000256515
0.000256515
0.000256515
0.000256515
0.000256516
0.000256516
0.000256516
0.000256516
0.000256516
0.000256516
0.000256516
0.000256516
0.000256516
0.000256516
0.000256516
0.000256516
0.000256516
0.000256516
0.000256516
0.000256516
0.000256516
0.000256516
0.000256516
0.000256516
0.000256516
0.000256516
0.000256516
0.000256516
0.000256516
0.000256516
0.000256516
0.000256516
0.000256516
0.000256516
0.000256516
0.000256516
0.000256516
0.000256516
0.000256516
0.000256516
0.000256516
0.000256516
0.000256516
0.000256516
0.000256516
0.000256516
0.000256516
0.000256516
0.000256516
0.000256516
0.000256516
0.000256516
0.000256516
0.000256516
0.000256516
0.000256516
0.000256516
0.000256516
0.000256516
0.000256516
0.000256516
0.000256516
0.000256516
0.000256516
0.000256516
0.000256516
0.000256516
0.000256516
0.000256516
0.000256516
0.000256516
0.000256516
0.000256516
0.000256516
0.000256516
0.000256516
0.000256516
0.000256516
0.000256516
0.000256516
0.000256516
0.000256516
0.000256516
0.000256516
0.000256516
0.000256516
0.000256516
0.000256516
0.000256516
0.000256516
0.000256516
0.000256516
0.000256516
0.000256516
)
;

boundaryField
{
    defaultFaces
    {
        type            empty;
    }
}


// ************************************************************************* //
