/*--------------------------------*- C++ -*----------------------------------*\
  =========                 |
  \\      /  F ield         | OpenFOAM: The Open Source CFD Toolbox
   \\    /   O peration     | Website:  https://openfoam.org
    \\  /    A nd           | Version:  11
     \\/     M anipulation  |
\*---------------------------------------------------------------------------*/
FoamFile
{
    format      ascii;
    class       volScalarField;
    location    "6";
    object      nut;
}
// * * * * * * * * * * * * * * * * * * * * * * * * * * * * * * * * * * * * * //

dimensions      [0 2 -1 0 0 0 0];

internalField   nonuniform List<scalar> 
700
(
0.000139228
0.000139228
0.000139228
0.000139228
0.000139228
0.000139228
0.000139228
0.000139228
0.000139228
0.000139228
0.000139228
0.000139228
0.000139228
0.000139228
0.000139228
0.000139228
0.000139228
0.000139228
0.000139228
0.000139228
0.000139228
0.000139228
0.000139228
0.000139228
0.000139228
0.000139228
0.000139228
0.000139228
0.000139228
0.000139228
0.000139228
0.000139228
0.000139228
0.000139228
0.000139228
0.000139228
0.000139228
0.000139228
0.000139228
0.000139228
0.000139228
0.000139228
0.000139228
0.000139228
0.000139228
0.000139228
0.000139228
0.000139228
0.000139228
0.000139228
0.000139228
0.000139228
0.000139228
0.000139228
0.000139228
0.000139228
0.000139228
0.000139228
0.000139228
0.000139228
0.000139228
0.000139228
0.000139228
0.000139228
0.000139228
0.000139228
0.000139228
0.000139228
0.000139228
0.000139228
0.000139237
0.000139234
0.000139231
0.000139229
0.000139228
0.000139228
0.000139228
0.000139227
0.000139226
0.000139225
0.000139417
0.000139348
0.000139285
0.00013925
0.000139235
0.000139229
0.000139224
0.000139213
0.00013919
0.000139162
0.000142167
0.000140855
0.000139934
0.000139479
0.000139299
0.000139228
0.000139164
0.000139038
0.000138766
0.000138223
0.000154679
0.000147043
0.000142373
0.000140351
0.000139534
0.000139163
0.00013889
0.000138599
0.000138281
0.000138185
0.00015116
0.000147631
0.000143538
0.000141209
0.000140039
0.000139477
0.000139158
0.000138881
0.00013856
0.000138274
0.00014621
0.000145938
0.000143488
0.00014169
0.00014054
0.000139871
0.00013949
0.000139237
0.000139002
0.000138742
0.00014033
0.000142517
0.000141957
0.000141234
0.000140577
0.000140072
0.000139724
0.000139489
0.00013931
0.000139134
0.000134258
0.000137971
0.000139104
0.000139611
0.000139758
0.000139726
0.000139625
0.000139513
0.00013941
0.000139312
0.000129009
0.000133313
0.000135644
0.000137178
0.000138141
0.000138711
0.000139025
0.000139182
0.000139248
0.000139263
0.00012563
0.000129858
0.000132793
0.000134929
0.000136444
0.000137486
0.000138179
0.000138622
0.000138895
0.000139054
0.00012488
0.000128739
0.00013175
0.000134018
0.000135691
0.000136895
0.000137738
0.000138311
0.000138689
0.00013893
0.000127094
0.000130432
0.000133019
0.000134946
0.000136357
0.000137368
0.000138073
0.000138554
0.000138874
0.000139086
0.000132529
0.000134513
0.000135942
0.000137027
0.000137825
0.000138391
0.000138784
0.000139054
0.000139248
0.000139401
0.000137539
0.000137374
0.000137719
0.000138153
0.000138533
0.000138825
0.000139033
0.000139177
0.000139275
0.000139337
0.000138326
0.000138332
0.000138466
0.000138657
0.000138846
0.000139002
0.000139119
0.000139202
0.000139258
0.000139291
0.000138795
0.000138813
0.00013887
0.000138953
0.000139039
0.000139115
0.000139174
0.000139217
0.000139246
0.000139262
0.000139041
0.000139051
0.000139074
0.000139108
0.000139145
0.000139178
0.000139205
0.000139225
0.000139238
0.000139246
0.000139156
0.00013916
0.000139169
0.000139182
0.000139196
0.000139209
0.00013922
0.000139228
0.000139234
0.000139237
0.000139204
0.000139206
0.000139208
0.000139213
0.000139217
0.000139222
0.000139226
0.000139229
0.000139231
0.000139232
0.000139222
0.000139222
0.000139223
0.000139224
0.000139225
0.000139227
0.000139228
0.000139229
0.000139229
0.00013923
0.000139227
0.000139227
0.000139227
0.000139227
0.000139228
0.000139228
0.000139228
0.000139229
0.000139229
0.000139229
0.000139228
0.000139228
0.000139228
0.000139228
0.000139228
0.000139228
0.000139228
0.000139228
0.000139228
0.000139228
0.000139228
0.000139228
0.000139228
0.000139228
0.000139228
0.000139228
0.000139228
0.000139228
0.000139228
0.000139228
0.000139228
0.000139228
0.000139228
0.000139228
0.000139228
0.000139228
0.000139228
0.000139228
0.000139228
0.000139228
0.000139228
0.000139228
0.000139228
0.000139228
0.000139228
0.000139228
0.000139228
0.000139228
0.000139228
0.000139228
0.000139228
0.000139228
0.000139228
0.000139228
0.000139228
0.000139228
0.000139228
0.000139228
0.000139228
0.000139228
0.000139228
0.000139228
0.000139228
0.000139228
0.000139228
0.000139228
0.000139228
0.000139228
0.000139228
0.000139228
0.000139228
0.000139228
0.000139228
0.000139228
0.000139228
0.000139228
0.000139228
0.000139228
0.000139228
0.000139228
0.000139228
0.000139228
0.000139228
0.000139228
0.000139228
0.000139228
0.000139228
0.000139228
0.000139228
0.000139228
0.000139228
0.000139228
0.000139228
0.000139228
0.000139228
0.000139228
0.000139228
0.000139228
0.000139228
0.000139228
0.000139228
0.000139228
0.000139228
0.000139228
0.000139228
0.000139228
0.000139228
0.000139228
0.000139228
0.000139228
0.000139228
0.000139228
0.000139228
0.000139228
0.000139228
0.000139228
0.000139228
0.000139228
0.000139228
0.000139228
0.000139228
0.000139228
0.000139228
0.000139228
0.000139228
0.000139228
0.000139228
0.000139228
0.000139228
0.000139228
0.000139421
0.000139446
0.000139473
0.000139495
0.000139509
0.000139514
0.00013951
0.000139498
0.000139478
0.000139454
0.000139376
0.000139402
0.000139424
0.000139432
0.000139422
0.000139394
0.000139352
0.0001393
0.000139242
0.000139178
0.00013936
0.00013938
0.00013939
0.000139382
0.000139353
0.000139308
0.000139252
0.000139189
0.000139121
0.000139047
0.000139371
0.000139387
0.000139384
0.000139361
0.000139323
0.000139277
0.000139229
0.000139184
0.000139143
0.000139109
0.00013942
0.000139443
0.000139425
0.000139383
0.000139332
0.000139284
0.000139246
0.000139221
0.000139213
0.000139229
0.000139528
0.000139587
0.000139553
0.000139474
0.000139391
0.000139322
0.000139274
0.000139245
0.000139235
0.000139245
0.000139719
0.000139883
0.000139832
0.000139689
0.000139537
0.00013941
0.000139313
0.000139234
0.000139158
0.00013908
0.000140034
0.000140431
0.000140369
0.00014012
0.000139845
0.0001396
0.000139378
0.000139143
0.000138866
0.000138582
0.000140535
0.000141383
0.000141309
0.000140903
0.000140441
0.000139992
0.000139501
0.000138857
0.000137998
0.000137158
0.000141067
0.000142958
0.000143055
0.000142624
0.000142081
0.000141483
0.000140663
0.000139254
0.000136684
0.000132117
0.000139362
0.000139342
0.000139325
0.00013932
0.00013933
0.000139349
0.000139359
0.000139306
0.000139037
0.00013811
0.000139303
0.000139295
0.000139283
0.000139271
0.000139259
0.00013924
0.0001392
0.000139109
0.000138929
0.000138668
0.000139268
0.000139263
0.000139254
0.000139241
0.000139223
0.000139197
0.000139153
0.000139086
0.000138993
0.000138905
0.000139248
0.000139245
0.000139238
0.000139227
0.000139212
0.00013919
0.000139159
0.000139117
0.000139071
0.000139036
0.000139237
0.000139235
0.00013923
0.000139223
0.000139213
0.000139198
0.000139179
0.000139156
0.000139133
0.000139118
0.000139232
0.000139231
0.000139228
0.000139224
0.000139217
0.000139209
0.000139198
0.000139187
0.000139176
0.000139169
0.00013923
0.000139229
0.000139227
0.000139225
0.000139222
0.000139217
0.000139212
0.000139206
0.000139201
0.000139198
0.000139229
0.000139228
0.000139227
0.000139226
0.000139225
0.000139223
0.00013922
0.000139218
0.000139215
0.000139214
0.000139228
0.000139228
0.000139228
0.000139227
0.000139226
0.000139226
0.000139224
0.000139223
0.000139222
0.000139222
0.000139228
0.000139228
0.000139228
0.000139228
0.000139227
0.000139227
0.000139226
0.000139226
0.000139225
0.000139225
0.000139228
0.000139228
0.000139228
0.000139228
0.000139228
0.000139228
0.000139228
0.000139228
0.000139228
0.000139228
0.000139228
0.000139228
0.000139228
0.000139228
0.000139228
0.000139228
0.000139228
0.000139228
0.000139228
0.000139228
0.000139228
0.000139228
0.000139228
0.000139228
0.000139228
0.000139228
0.000139228
0.000139228
0.000139228
0.000139228
0.000139228
0.000139228
0.000139228
0.000139228
0.000139228
0.000139228
0.000139228
0.000139228
0.000139228
0.000139228
0.000139228
0.000139228
0.000139228
0.000139228
0.000139228
0.000139228
0.000139228
0.000139228
0.000139228
0.000139228
0.000139228
0.000139228
0.000139228
0.000139228
0.000139228
0.000139228
0.000139228
0.000139228
0.000139228
0.000139228
0.000139228
0.000139228
0.000139228
0.000139228
0.000139228
0.000139228
0.000139228
0.000139228
0.000139228
0.000139228
0.000139228
0.000139228
0.000139228
0.000139228
0.000139228
0.000139228
0.000139228
0.000139228
0.000139228
0.000139228
0.000139228
0.000139228
0.000139228
0.000139228
0.000139228
0.000139228
0.000139228
0.000139228
0.000139228
0.000139228
0.000139228
0.000139228
0.000139228
0.000139228
0.000139228
0.000139228
0.000139228
0.000139228
0.000139228
0.000139228
)
;

boundaryField
{
    defaultFaces
    {
        type            empty;
    }
}


// ************************************************************************* //
