/*--------------------------------*- C++ -*----------------------------------*\
  =========                 |
  \\      /  F ield         | OpenFOAM: The Open Source CFD Toolbox
   \\    /   O peration     | Website:  https://openfoam.org
    \\  /    A nd           | Version:  11
     \\/     M anipulation  |
\*---------------------------------------------------------------------------*/
FoamFile
{
    format      ascii;
    class       volScalarField;
    location    "2.3";
    object      gradTy;
}
// * * * * * * * * * * * * * * * * * * * * * * * * * * * * * * * * * * * * * //

dimensions      [0 -1 0 1 0 0 0];

internalField   nonuniform List<scalar> 
5712
(
11622.3
6701.74
18849.5
12352.7
20561.8
15219.5
32290
40003.5
42441.4
51917.5
27442.9
23840.4
17434.2
13813.9
8749.62
5917.78
19529.8
19991.7
16814.8
19761.2
26381.8
23573.4
30420.4
24635.8
8213.17
5923.51
4612.4
3426.23
9836.29
8014.67
5961.46
4813.48
17824.9
18526.7
18230.3
15426.6
14233.1
11097.9
11142.2
12647.2
17960.7
17865.7
37637.1
38899.8
26696.1
27487.5
15196.5
12815.9
16575.7
11822.7
7710.55
7908.73
6289.62
8717
3288.51
3940.19
8628.22
11716.5
5131.1
5963.12
9579.71
15946.5
6630.33
10804.3
2532.47
6432.92
2105.94
4804.29
17645.7
21784
18176.3
21673.7
21599
21824.8
21964.7
21524.1
15446.7
20913
15905.8
20668.7
17888.3
21513
17872.7
21455.6
22126.4
21234.7
22039.8
21024.5
14261.4
20993.6
13761.5
21063.9
17344.2
20280.7
21904.6
30452.1
18359.3
23357.2
21699.2
32995.4
16450.6
17881.1
21998.8
29316.6
16278.1
16745.5
22238.7
29113.2
5106.8
6651
13000.3
22562
6360.27
7209.59
16803.4
25765.5
7963.04
8035.91
21392.3
28933
24268.1
26135.8
20464.7
19705.2
28344
26341.9
24823
20900.5
18084.9
32299.5
23990.7
23636.4
21004.8
20783.3
37061.9
1989.39
2383.16
4235.44
9537.93
2832.5
3192.01
5888.28
10763.9
4247.88
3592.65
8053.82
12448
26153.6
25971.7
23544.7
23289.2
20093
18525.2
15184.8
13487.6
10644.4
14689.5
23777.6
23071.8
23912.8
23627.6
20727.5
19501.8
17089.8
15356.5
11369.3
14893.5
23639.2
26652.5
23554.8
27281.9
22898.7
23764.2
22332.3
23895.4
21435.1
21821.1
21265.5
21198.5
23361.5
27386.2
23245.6
27350.5
21667.1
24170.3
21478.8
24103.5
21517.2
21772.2
21505.9
21754.6
17997.7
17116
11588.3
12862.1
17865.6
16653.8
11404.3
12875.5
18255.3
17073.8
11845.5
12932.2
18329.9
16903.8
12216
12948.2
1636.71
1124.48
789.373
959.095
672.071
629.111
2269.88
1385.78
1061.34
1900.78
1545.57
1345.24
2665.48
2263.9
2290.08
3352.57
2773
2505.9
25007.9
22780.4
21189.1
22961.1
21458.7
20215
16447.1
15393.9
14819.6
11119.2
9749.74
9175.14
5103.04
3816.53
3256.52
22573.9
21092
19776.6
23102.5
21247.3
19762.4
17064.6
14819.2
13535.3
11102.1
8996.02
8139.72
5433.34
3803.9
3075.37
26815.5
26297.6
29164.4
26223.3
30010.2
26236
36177.5
27586.5
20822.7
21202.9
20546.1
19103.9
23362.8
22063.2
22912.6
19613.7
22674.3
22549.4
20918
22424.4
27960.4
25048.2
27589.6
27994.1
29921
30925.1
22980.2
23834.1
20597.8
19986.2
25062.9
25694.9
16383.4
8756.27
15285.3
9704.69
16620.3
8834.36
15231.9
9638.88
16409.4
8884.61
15201.5
10051.2
14771.9
10519.3
14942.9
10432.6
21090.2
18094.8
20928.4
18042.9
23251.8
21049
23441.2
20812.3
20520.5
15100.3
21451.4
14925.6
21363.4
17940.8
21618.7
17732.1
24013.5
20623
24014.8
20350.8
20293.4
15132.3
20221.3
15035.6
13469.6
8918.78
11959.7
7549.44
12575.2
7984.44
11508.7
7045.77
13785.9
9483.37
12143.4
7781.92
13796.5
9833.32
12108.9
7836.87
2543.13
1309.3
4590.64
2347.79
2723.01
1629.14
4899.95
2862.79
3374.09
2502.46
5449.96
3838.96
13182.3
20349.3
9492.39
9097.88
6348.13
19973.4
13969.3
8198.61
8236.6
5197.01
20716.1
16374.1
13053.2
10150.5
6159.02
682.958
521.47
1239.52
866.444
1005.79
697.489
1864.91
1463.49
1799.42
1432.74
2836.86
2296.56
20361.1
19875.6
13885.6
13467.2
9062.6
9287
7627.9
7154.7
4424.18
3634.01
19054.8
17483.1
14859
13213
11623.6
10500.7
8833.49
8147.2
5443.8
5526.9
15176.4
12465.2
15238.6
12127
18136.1
15196.6
18057.2
14929.9
12834.7
10598.3
12473
10669.8
15222.4
11914.7
15122.9
11889.7
17967
15182.1
17785.8
15127.2
13052.8
10413.9
13028.2
10552.2
10006.7
8649.18
6473.83
7021.39
9656.72
8485.11
6166.89
6668.76
10429.5
8812.83
6639.35
7447.63
10683.6
8815.04
6908.91
7557.69
1949.35
1725.94
1433.78
8542.28
4563.32
3734.52
1884.08
1873.56
1669.79
9223.48
5381.15
4570.25
2573.58
2909.38
2994.62
10129.6
6714.84
5998.87
18931.5
17875.6
17073.2
13121.4
12867.4
12680.8
9697.11
9692.53
9737.62
8452.81
8257.72
8093.02
11471.2
8273.91
7505.23
16111.6
15024.8
14263
12178.1
11484.2
11073.4
10284.3
9671.19
9299.87
10055.3
9015.85
8389.41
13923.2
9330.1
8419.6
4767.17
3016.63
2215.14
1971.75
5406.34
3300.48
2346.09
2018.68
4786.9
3008.91
2218.68
1986.98
5526.26
3369.23
2390.35
2038.54
4761.44
2965.38
2211.46
1968.97
5634.96
3407.54
2432.16
2025.67
6084.8
3623.14
2501.34
2122.66
6274.39
3771.49
2589.94
2210.6
5088.3
3164.24
2296.99
1988.68
4051.14
2715.92
2080.73
1911.72
4414.05
2836.03
2126.62
1840.29
3693.76
2543.97
1990.79
1830.59
5538.58
3411.46
2419.34
2087.18
4263.28
2841.49
2138.73
1976.48
5791.82
3578.53
2504.8
2155.1
4353.58
2930.58
2185.49
2010.66
3509.24
2544.98
1996.77
1865.24
2109.9
1973.35
1728.93
1751.44
3511.65
2526.73
1990.64
1859.41
2214.84
2001.47
1739.19
1761.18
3591.62
2517.07
1993.51
1863.87
2548.68
2099.16
1777.5
1805.69
3521.44
2435.97
1944.77
1896.78
2831.93
2164.14
1823.57
1789.73
3213.15
2342.86
1887.59
1801.28
650.669
1503.66
1345.24
403.722
-1036.92
1237.64
1183.81
433.837
902.654
1586.07
1377.09
427.116
-713.788
1330.4
1211.96
443.46
1373.46
1731.45
1427.75
425.918
-169.806
1486.18
1254.51
449.094
1944.44
1902.17
1496.96
463.709
399.965
1656.66
1313.72
469.062
2309.19
2055.1
1582.03
544.733
525.654
1781.66
1368.28
486.405
2463.56
2217.93
1622.28
515.562
140.079
1904
1467.4
516.426
2403.16
2145.76
1591.78
516.242
111.77
1846.88
1417.8
498.658
2475.55
2269.09
1650.39
478.77
64.0026
1953.92
1502.5
519.889
2531.54
2324.35
1698.12
490.325
169.028
2011.57
1545.04
533.483
1877.62
1459.21
1019.61
599.15
197.349
1856.03
1456.19
1020.35
599.933
197.62
1900.52
1470.62
1025.25
601.802
198.126
1883.66
1470.8
1027.93
603.572
198.699
1943.6
1486.95
1032.6
605.163
199.105
1917.72
1488.34
1036.88
607.888
199.99
1947.79
1508.52
1048.76
613.952
201.843
1993.8
1537.75
1065.78
622.637
204.499
1988.03
1506.67
1043.22
610.421
200.697
2123.52
1531.06
1050.19
613.041
201.419
1997.41
1501.61
1038.08
607.49
199.765
2120.55
1522.3
1044.5
610.071
200.496
2006.73
1524.46
1053.88
615.899
202.381
2162.07
1548.32
1059.9
617.987
202.941
2051.54
1552.79
1069.89
624.002
204.858
2209.69
1573.57
1073.76
624.991
205.091
1930.61
1466.57
1019.56
598.522
197.111
2031.5
1474.76
1019.79
598.158
196.967
1952.04
1475.56
1023.76
600.444
197.665
2048.44
1481.51
1022.99
599.633
197.395
1995.55
1490.65
1030.38
603.46
198.536
2085.76
1493.82
1028.69
602.282
198.162
2067.4
1508.1
1037.1
606.421
199.383
2130.49
1507.07
1035.22
605.355
199.044
2135.88
1517.09
1040.92
608.188
199.902
9396.36
14412.7
9874.31
14719
10584
15125.2
11086.8
15401.1
10681.9
14854.5
9966.04
11215.1
9952.51
11710
10036.9
11143.1
10219.1
11290.5
8303.3
1419.79
302.786
67.7784
11.9829
9228.55
2623.95
636.083
144.051
25.4594
8401.21
1410.33
298.523
66.5599
11.7347
9324.24
2616.12
631.622
142.341
24.939
8503.64
1407.49
295.302
65.54
11.5288
9413.48
2611.57
626.922
140.727
24.6161
8457.54
1369.54
284.679
63.007
11.0742
9334.69
2564.69
613.254
137.396
24.0051
8053.92
1271.27
263.641
58.5171
10.3069
8872.17
2441.55
585.604
131.553
23.0161
7219.16
1184.87
253.708
57.2229
10.155
7386.73
2131.37
524.604
119.77
21.1509
7457.62
1204.31
254.822
57.1139
10.103
7803.1
2247.25
548.279
124.19
21.8166
7131.22
1181.82
254.255
57.4859
10.2117
7253.74
2081.15
512.739
117.434
20.7964
7110.57
1173.71
252.333
57.0784
10.1309
7269.32
2070.93
508.95
116.846
20.6594
33261
47086.8
46027.5
32292.5
19063.6
20051.3
28109.3
29339
21970.5
24600.3
34901.3
47554.9
44097.5
58360.5
28817
32819.3
22635.9
24164.8
12295.6
13474.5
4932.19
3279.03
904.55
704.533
790.527
696.273
841.171
4848.34
4816.65
2921.07
4113.62
3963.77
1733.43
2378.22
2171.59
1442.7
1658.55
1366.74
4364.18
2398.36
1557.03
1381.38
1741.3
1514.61
1196.04
1136.33
1073.76
946.848
1272.84
1151.6
4553.41
2786.3
3190.48
2052.46
1702.49
2373.6
1221.28
969.775
1339.1
10056.7
10213.1
10495.3
11876.7
19690.9
7286.38
8414.31
9273.18
10486.5
12269.6
2381.72
3409.63
4198.22
4740.07
5021.73
1868.73
2702.92
3353.75
3800.52
4029.02
2093.92
3021.06
3737.5
4223.91
4470.31
1848.42
2676.3
3322.05
3763.59
3988.1
2222.97
3197.4
3947.58
4458.35
4719
10221.1
10588
10529.6
11257.3
17718.7
10124.8
10306.3
10066.1
10372.3
11879.7
6731.98
8023.25
8716.87
9371.29
10144.9
8920.07
9417.66
9237.04
9217.57
9477.4
8587.38
9141.7
8930.11
8751.77
8777.58
4330.28
5747.73
6661.36
7253.75
7585.81
5667.52
7045.92
7795.2
8294.82
8648.44
5240.79
6614.11
7351.02
7766.38
7987.48
3683.13
5035.71
5958.55
6549.12
6852.55
4160.27
5545.62
6426.75
6965.6
7238.88
3509.97
4836.58
5751.52
6331.55
6621.13
9382.35
10057.5
10303.1
11298.1
18002.8
5719.74
7171.16
8102.92
8923.51
9739.05
3948.37
5356.28
6322.55
6975.71
7347.6
3542.77
4886.79
5849.31
6511.34
6882.95
4351.12
5800.28
6797.21
7531.33
8027.49
3853.41
5265.28
6280.94
7015.91
7464.15
3101.43
4349.99
5284.16
5941.57
6306.8
2961.86
4178.34
5084.44
5703.04
6029.9
2810.49
3982.84
4850.33
5423.94
5712.74
2492.22
3562.19
4371.83
4915.66
5191.24
3290.38
4582.03
5506.74
6117
6433.49
2998.61
4221.52
5122.57
5728.37
6043.79
9522.52
9963.34
10293.4
11561.8
18910
6396.74
7702.23
8654.35
9761.91
11146.8
7432.94
8766.55
9499.43
10624.8
12980.4
5017.15
6531.62
7617.55
8559.57
9345.45
4274.52
5748.19
6808.64
7628.4
8188.16
5670.7
7150.16
8152.01
9085.66
10026.4
3164.61
4431.45
5370.83
6024.39
6383.59
2547.73
3633.54
4456.01
5014.05
5301.33
3444.3
4773.03
5739.56
6413.65
6794.09
18248.5
12112.6
18804.5
13422.9
24389.2
34793.1
25480.9
34615.2
19340.7
20473.9
16589.5
19772.5
21993.6
20928.8
27969.4
22953.3
14051.8
13108.9
6884.57
5864.42
15319.6
13977.6
7910.41
6445.92
18935.8
20474.9
19426.2
17738.1
19781.1
13032.8
10934.4
12607
17856.5
17829.4
37073.8
38774.6
25948.5
27282.2
15767.8
12936.3
17233
11936.7
8349.88
8062.18
13757.4
15204.4
5758.1
6272.74
15148.5
17256.9
7186.26
7924.84
14465.8
20173.7
8402.91
12934.1
2941.16
7163.51
2187.31
4946.55
18030.2
20623.4
17969.1
20993.4
19698.3
19989.6
20744.6
20493.8
16381
20731.6
18579
20438.7
17673.7
21147.5
17790.1
21337
21496.1
20706.9
21853.7
20860.9
14526
20869.2
13799.4
21016.1
18214.7
21514
22123.6
30781.2
19835.3
25450.9
22185.8
33707.7
16841.6
18469.1
22074.3
29454.4
16377.1
16907.5
22249.9
29147.8
18859.5
20379.2
23615.2
34990.1
18988.5
19440.9
25284
35460.7
18733
18414
27227.2
35211
18237.3
19142.4
19454.2
20663
30988
18405.3
17172.1
20776.1
18902.9
35398
19202.1
19998.5
19806.9
21429
38311
11362.6
10411.3
10502.8
13553.7
12435.4
11411
10886.3
13936.5
13681.5
11885
11394.3
14257.4
17864.9
17212.2
16741.9
16315.8
19289.3
18071.7
15914.3
14349.1
11940.8
14886.1
18879.2
18699.3
19970.5
20132.1
19130.7
18028.9
17328.8
15403.5
11766.6
14406.4
21732.1
24477.3
22584.6
26108.7
20576.3
21502.6
21209.7
22775.4
20899.7
21132.6
20355.6
20096.6
22884.9
26814.7
23100.4
27179.6
21140.2
23625.6
21322.2
23944
21225.5
21417
21413.3
21647.8
17852
16837.2
11616.1
12770.9
17759.7
16340.6
11575.9
12799.7
18147
16906.7
11834
12866.8
18290.3
16849.3
12206.8
12923.2
9542.7
9686.41
4098.66
3777.82
10644.7
10302.7
4592.68
4397.43
10376.5
9731.01
5231.73
5053.01
16990.7
16501.4
16548.9
16632.9
16477.2
15990.9
12376.5
11090.9
6167.53
5098.21
19041.9
18293.3
20305.9
19536.7
16099.2
14946.6
11554.3
9943.86
5675.22
4278.17
21973.4
20917.1
26905.3
23535.1
24426.6
21799.1
33404
25232.4
20106.8
16610.6
21881
17410
19992.5
16895
21975.9
17636.2
20523.1
18219.3
18594.7
17322.2
21143.7
22381
26233.2
27580.5
28770.8
30590.1
21627.6
23355
19556.1
19688.4
23538.1
25181.2
13557.7
9985.34
13979.5
10211.7
13839.4
9895.03
14163.4
10059
13771.2
9747.34
14118.8
10251.8
14148.1
10558.9
14740.7
10438.8
17227
16768.6
19000.7
17223.2
19710.7
18917.1
21553.1
19623.6
18714.1
14795.6
17814.9
14633.7
20405
17504.5
21333.4
17599.7
23090.6
20022.7
23746.7
20169.1
19399.1
14940.7
19961
14976
13065.3
9337.35
12167
7928.63
12526.5
9057.59
12116.1
7850.55
13470.3
9638.36
12208.5
7958.64
13684.9
9870.19
12125.4
7894.45
13090.4
13333.6
9372.06
8627.5
13237.7
13449.2
9224.87
8554.69
13205.4
12919.9
8990.62
8454.64
15293.7
17990.8
16127.8
12016.9
8737.2
16705.1
15682.7
17581
12088.3
8439.97
18415.2
16383.6
14589.8
12256
7781
14023
15335
8610.91
9370.55
13867.6
14905.1
8528.4
9232.6
12930.5
13535.4
8144.05
8335.46
16560
15752.8
15031.4
14545.3
15676.8
16223.5
12269.9
13183.5
7894.81
7766.75
16770.7
15443.6
15186.2
13973.5
13727.6
13250.9
11635.1
11770.7
7266.56
7879.3
14862.7
12832.1
14926.7
12246.9
16732.5
14283.2
17251.8
14454.6
12999.4
11165.7
13091.4
11955.1
15025.7
11965.7
15061.6
11903.4
17563
14948.4
17665.1
15060.5
13070.8
10660.4
13019.9
10614.6
10509.9
9453.1
6965.16
7763.01
10803.6
10160.8
7138.89
8158.49
10630.3
9172.15
6867.52
7845.64
10740.8
8920.32
6986.67
7683.22
18442.9
18413.2
25505.3
21412.1
17664.2
17771.4
24443.5
20457.3
15485.7
16182.8
22418.3
19010.8
15324.4
14844.3
14201.4
14054.3
16526.3
17036.5
15410.3
15432.4
20564.4
17415.6
14508.2
13858
13421.8
13300.3
13798
14196.8
14900.2
14602.1
20136
16029.5
6263.52
4018.73
2826.47
2403.34
6518.1
4161.03
2912.04
2423.41
6141.87
3939.69
2776.49
2380
6454.84
4114.02
2878.58
2389.36
5918.79
3783.46
2696.95
2309.85
6355.57
4006.87
2839.44
2319.91
6505.95
4000.03
2778.89
2333.29
6415.37
3902.49
2683.52
2283.87
5693.9
3635.79
2630.3
2248.91
4454.93
3050.47
2313.97
2106.91
5365.08
3505.8
2556.99
2155.4
4353.43
3059.6
2299.66
2061.41
5873.49
3693.03
2629.3
2254.73
4481.26
3030.01
2285.75
2110.11
5895.56
3672.85
2577.15
2213.85
4422.23
2991.95
2235.85
2056.61
5729.74
3748.13
2665.68
2325.4
4832.58
3347.65
2454.05
2240.65
5568.23
3665.81
2616.81
2288.1
4721.18
3301.37
2428.52
2229.09
5340.87
3532.3
2553.92
2251.43
4639.26
3241.54
2396.77
2226.96
4862.56
3287.66
2423.61
2234.87
4456.86
3140.87
2345.58
2128.71
4191.13
3040.77
2269.71
2058.15
3497.84
2938.58
2017.09
561.587
1418.33
2674.5
1866.83
628.919
3539.46
2937.69
2016.38
581.383
1595.95
2679.25
1863.79
631.157
3613.16
2918.22
1993.36
553.113
1842.39
2668.16
1839.15
616.184
3577.85
2865.22
1994.99
582.783
1878.5
2622.23
1818
615.488
3301.62
2755.48
1984.77
662.472
1339.91
2508.02
1779.66
611.181
2763.01
2513.12
1869.04
607.035
276.805
2216.97
1686.69
592.517
2956.03
2616.69
1924.03
623.919
466.884
2342.23
1727.57
597.978
2623.6
2430.56
1800.93
537.475
108.116
2123.89
1631.47
566.749
2573.89
2375.75
1747.95
510.281
175.523
2064.68
1586.83
548.964
2214.8
1663.99
1134.88
656.865
214.806
2163.99
1650.58
1131.09
655.588
214.472
2213.65
1657.52
1130.32
654.398
214.036
2155.59
1640.62
1124.56
652.139
213.407
2229.57
1652.01
1124.94
651.345
213.073
2147.24
1629.17
1116.84
648.062
212.156
2105.81
1606.3
1104.5
642.004
210.344
2051.92
1574.63
1086.91
633.296
207.734
2198.9
1634.08
1114.72
646.23
211.533
2324.66
1644.59
1113.05
644.422
210.909
2265.56
1652.89
1122.04
649.41
212.439
2379.98
1658.64
1119.44
647.403
211.778
2146.11
1611.93
1103.32
640.717
209.897
2292.4
1625.31
1102.82
639.476
209.447
2099.84
1583.11
1087.11
632.673
207.491
2254.49
1600.4
1088.78
632.536
207.386
2313.18
1683.53
1139.38
658.192
215.135
2475.24
1701.12
1142.52
659.032
215.338
2317.89
1679.51
1136.18
656.412
214.571
2476.74
1697.55
1139.98
657.657
214.906
2336.56
1674.06
1131.1
653.585
213.677
2484.12
1690.58
1135.14
655.089
214.102
2387.74
1671.97
1126.55
650.901
212.818
2495.18
1680.37
1129.15
651.997
213.127
2442.19
1668.16
1123.43
649.228
212.299
11436.7
15051.2
11500
15063.6
11636.8
15071.6
11454.4
14896.8
10716.7
14174.8
9954.34
11139.9
9977.8
11574.3
10020.1
11097.9
10211.8
11275.3
8795.24
1463.23
307.441
68.2898
12.0235
9469.78
2677.59
644.571
145.139
25.5544
8761.03
1439.68
301.346
66.8068
11.742
9431.49
2645.27
636.191
142.827
24.9565
8654.1
1414.81
295.254
65.3685
11.4827
9328.51
2605.26
625.769
140.335
24.5207
8416.29
1357.79
282.162
62.471
10.9809
9098.68
2529.19
607.198
136.227
23.808
7945.18
1253.61
260.304
57.8455
10.1952
8615.05
2397.67
577.629
130.027
22.769
7177.48
1176.78
251.807
56.7833
10.0772
7329.17
2112.74
519.887
118.701
20.9652
7394.16
1191.74
252.045
56.5087
9.99933
7696.24
2216.63
541.373
122.742
21.5757
7106.61
1177.2
253.151
57.223
10.1642
7222.52
2071.1
510.077
116.805
20.6839
7102.34
1172.19
251.969
56.9908
10.115
7259.11
2067.77
508.101
116.641
20.6221
32807.9
46783.2
44969.3
30930.5
24183
28788.3
23382.5
28678.3
27061.7
42889.4
28681.9
43911.1
231.737
248.684
286.443
347.607
436.631
558.772
246.038
263.447
302.084
364.09
452.529
571.045
220.956
215.643
238.946
235.436
279.158
279.854
344.81
353.695
439.268
458.841
562.57
585.13
720.271
927.923
1199.45
1561.99
1981.35
2283.19
723.285
911.843
1138.42
1394.02
1639.38
1798.71
620.468
910.266
1143.8
1307.37
1391.57
665.603
975.959
1225.73
1400.46
1490.34
766.196
1122.37
1408.3
1607.92
1710.47
928.869
1358.55
1702.17
1941.37
2064.06
1164.89
1699.62
2124.84
2419.73
2570.75
1486.88
2161.04
2692.82
3060.11
3248.17
658.585
965.835
1213.24
1386.4
1475.49
704.892
1033.09
1296.94
1481.37
1576.17
807.665
1182.33
1482.66
1692.12
1799.67
972.278
1420.69
1778.59
2027.49
2155.11
1206.24
1757.75
2195.34
2498.65
2654.07
1517.96
2203.1
2742.48
3115.26
3306.54
591.656
868.16
1091.13
1247.36
1327.81
577.435
847.352
1065.08
1217.68
1296.25
639.628
938.101
1178.48
1346.72
1433.28
630.246
924.405
1161.38
1327.28
1412.63
746.845
1094.36
1373.56
1568.58
1668.79
748.717
1097.15
1377.15
1572.74
1673.23
921.62
1348.47
1690.11
1928.01
2050.03
945.333
1383.1
1733.42
1977.3
2102.33
1172.31
1711.24
2140.1
2437.48
2589.66
1224.38
1786.83
2234.03
2543.78
2702.13
1497.81
2178.52
2715.74
3086.3
3275.57
1557.81
2265.4
2823.07
3206.88
3402.46
1908.17
2755.85
3416.86
3872.33
4106.72
2439.88
3487.53
4292.38
4849.75
5142.65
3113.1
4374.02
5324.85
5999.24
6374.97
3964.71
5415.2
6487.71
7300.14
7817.96
4873.71
6402.33
7517.76
8465.54
9206.09
5499.7
7038.83
8159.87
9201.11
10121.9
1914.63
2762.39
3423.14
3879.43
4115.1
2398.74
3431.29
4226.33
4777.95
5067.82
2967.72
4194.05
5125.41
5781.44
6139.04
3589.74
4993.05
6044.33
6807.92
7251.45
4164.49
5693.56
6827.2
7686.22
8226.76
4529.56
6125.89
7304.85
8226.8
8838.41
234.55
257.231
301.25
369.489
466.645
598.064
248.924
272.208
317.13
385.984
481.78
607.705
223.793
218.579
247.638
244.485
294.357
295.815
367.613
377.998
470.972
492.43
605.69
632.057
768.337
980.687
1249.81
1599.83
2001.48
2288.89
766.06
957.354
1181.39
1428.3
1660.67
1805.8
628.015
921.41
1157.93
1323.63
1408.94
688.623
1010.06
1269.01
1450.33
1543.66
806.119
1181.62
1483.66
1694.91
1803.57
987.994
1446.61
1814.57
2071.5
2203.56
1246.29
1821.56
2281.41
2601.86
2766.51
1594.05
2323.06
2902.69
3305.95
3513.42
666.347
977.327
1227.84
1403.23
1493.49
728.514
1068.14
1341.51
1532.81
1631.23
848.281
1242.73
1559.63
1781.12
1895.01
1031.51
1509.08
1891.65
2158.58
2295.79
1285.64
1876.89
2348.56
2677.1
2846.02
1617.97
2354.35
2938.51
3344.99
3554.49
599.273
879.407
1105.37
1263.74
1345.3
585.322
858.992
1079.81
1234.61
1314.33
663.019
972.706
1222.34
1397.23
1487.25
654.588
960.397
1206.98
1379.75
1468.69
787.796
1155.07
1450.69
1657.54
1763.95
791.712
1160.88
1458.09
1666.07
1773.05
983.206
1440.12
1807.01
2063.27
2194.98
1010.99
1480.86
1858.17
2121.7
2257.11
1258.31
1840.13
2305.66
2630.1
2796.72
1315.65
1924.01
2410.71
2749.79
2923.85
1615.54
2356.76
2946.93
3357.36
3568.19
1686.22
2460.51
3077.05
3505.51
3725.34
2040.5
2958.76
3683.28
4187.68
4448.97
2587.4
3718.82
4602.21
5222.12
5550.27
3257.95
4609.79
5650.66
6400.04
6819.74
4080.09
5615.48
6777.42
7668.95
8236.74
4942.21
6532.22
7714.7
8725.57
9510.6
5521.47
7083.14
8229.14
9294.82
10234
2032.19
2942.2
3658.72
4157.88
4417.07
2525.19
3627.82
4487.68
5090.42
5408.91
3089.09
4387.06
5387.23
6099.3
6489.15
3688.98
5155.74
6270.48
7087.68
7563.28
4228.07
5801.3
6980.47
7879.31
8444.8
4551.21
6163.4
7358.98
8295.77
8916.95
4913.96
3278.16
967.71
758.699
864.499
756.652
910.928
4525.42
4368.12
2865.67
3615.47
1799.42
2359.85
1525.94
1685.94
1433.87
4220.37
2421.92
1638.46
1464.15
1810.08
1584.37
1259.38
1214.71
1172.06
1037.62
1364.59
1238.99
4500.11
2792.76
3161.32
2085.29
1756.94
2399.65
1293.48
1047.18
1416.53
10055.5
10268.4
10601.6
12050.1
20009.3
7301.41
8464.41
9362.09
10618.1
12441.8
2558.98
3689.13
4574.41
5193.55
5518.75
2018.02
2932.29
3655.5
4158.14
4417.33
2299.28
3340
4161.36
4730.22
5022.46
2014.92
2932.28
3659.03
4163.2
4422.12
2417.88
3502.79
4356.33
4948.88
5255.14
10024.6
11249.8
12006.7
13513.2
21272.3
9889.14
11332
12291.9
13652.8
15988.4
6857.8
8711.96
10060.1
11309.5
12485
8683.94
10557
11626.2
12732.6
13697.1
4614.07
6384.16
7699.78
8645.59
9188.94
5861.07
7783.09
9162.97
10223.2
10916.4
3975.19
5612.81
6852.55
7718.21
8183.93
4364.21
6109.41
7414.12
8328.16
8826.86
3754.2
5335.45
6540.2
7374.44
7814.47
9303.05
10455.2
11225.6
12734.9
20381.4
5909.13
7698.7
9029.2
10221
11295.2
4230.36
5908.04
7174.4
8089.93
8618.99
3803.17
5355.3
6541.21
7395.95
7882.33
4599.98
6303.39
7587.2
8577.96
9235.85
4075.38
5669.15
6882.47
7791.14
8345.83
3286.64
4657.77
5716.14
6478.14
6904.99
3191.06
4559.38
5619.03
6365.6
6766.43
3096.44
4455.48
5510.98
6240.89
6619.69
2748.93
3971.29
4927.55
5589.87
5932.48
3575.74
5089.66
6250.78
7062.4
7496.31
3257.55
4658.7
5742.28
6500.78
6904.4
9520.49
10137.5
10632.2
12102.9
19898.4
6453.97
7855.5
8915.86
10136.1
11619.5
7488.14
9078.85
10109.3
11543.3
14222.8
5140.53
6785.11
8019.37
9102.73
9988.57
4454.09
6085.39
7320.7
8298.77
8960.23
5826.76
7554.32
8852.97
10071.3
11218.6
3378.39
4792.07
5882.22
6663.19
7097.28
2768.37
3988.7
4942.01
5606.26
5953.74
3681.58
5188.77
6344.09
7180.39
7657.41
9734.54
9173.24
8192.89
6821.69
4955.6
1939.51
18579.8
18925.8
21489.4
22163.1
18230.6
19346.1
20561.2
19936.2
15236.6
18732.9
15894.2
19293.3
18240.6
16453.9
25439.8
17878.9
18087.5
20300.8
20737
17272
18369.8
19675.3
19247.1
15178.1
22617.3
15751.2
22514.6
18418.9
19981.5
27293.7
17098.3
17180.6
18792.9
18989
16567.2
18056.6
18493.4
18553.2
17412.8
20036.5
18171.6
20055.6
20006.1
21987.1
24599.5
16366
16467.1
17440.1
17480.6
16163.7
17887.5
17308.7
17638.6
16340.6
17545.5
17073.4
17114.7
18319.8
19808
21301.3
15595.9
15730.3
16527
16484.9
15888.4
17766.7
16540.2
17053.5
15492.4
14514.7
16252.3
13953.3
16876.2
16743.4
17641.8
15261.5
15437.8
15925.3
15851.5
15527.9
17089.2
16050.6
16485.3
14809.9
12509
15380.5
12271.6
15729.4
14760.8
16008.6
21437.6
20623
22460.7
23581.1
19898.3
19896.2
20945.5
20020.1
18971.3
14113
18937.8
14194
16833.3
15290.2
18411.4
20255.5
19669.6
20783.3
21515.8
19238.3
19398.3
19782.3
19008.3
17627.8
13697.3
17621.3
13796.5
15471.8
13812.1
17088.5
18711.6
18369.7
18779.9
19130.4
18128.5
18302.2
18287.1
17827.6
16789.7
13482.2
16598.5
13224.6
14906.9
12672.5
16839.7
17271.2
17080.9
17260.8
17412.6
16927.7
17043.5
17098.3
16739.3
15915.3
13972.5
15818.6
13654.9
14372.5
12787.6
17232.4
16546.7
16423.8
16433.1
16499.7
16137.2
16247.3
16406.3
16186.3
15760.3
15101.6
15699.6
14955.1
14517.4
13340.8
17875.1
16029.5
15915.4
15962.8
16001.5
15678.3
15968
15911.8
15827.5
15702.8
15813.2
15701.7
15731.1
14646.6
13898
18620.8
11432.9
6487.41
18842.3
12359.8
20583
15207.1
32317.9
40017.2
42491.7
51942.5
27492.2
23841
17441.9
13839.7
8487.04
5647.68
19532.9
19994.1
16813.5
19762.2
26394.8
23579.1
30428.7
24640.1
8044.69
5805.92
4457.1
3323.14
9808.98
8005.02
5959.97
4826.92
17820.2
18522.1
18228.8
15427
14228.9
11100.9
11143.1
12648.7
17962.3
17867.3
37644
38904.6
26699.4
27489.8
15197.3
12817.4
16577.2
11824
7711.69
7909.82
6177.42
8579.18
3200.69
3843.26
8629.93
11728.6
5145.24
5979.62
9580.88
15952.6
6636.43
10812
2533.83
6435.91
2106.42
4805.44
17646.7
21785
18177.6
21674.8
21601.8
21826.3
21967
21525.2
15448.6
20914.2
15906
20669.6
17889.5
21514
17873.7
21456.5
22128.2
21235.6
22040.9
21025.1
14262.7
20994.8
13762.6
21065.1
17346.1
20284.4
21906.4
30454.6
18360.7
23361.1
21700.8
32998.3
16452.4
17883.8
22000.5
29318.9
16279.8
16747.7
22240.3
29115.5
5024.45
6570.08
12826.3
22372.6
6365.76
7213.38
16818.7
25784
7965.51
8037.99
21399.1
28940.1
24268.1
26136.5
20464.3
19706.3
28348
26342.4
24822.9
20899.6
18085.5
32303.7
23991.6
23637
21005.3
20784.8
37065.4
1948.73
2351.78
4148.84
9446.06
2836.88
3196.27
5899.73
10773.6
4249.88
3593.81
8057.57
12450.3
26153.8
25971.7
23544.5
23289.2
20092.4
18524.9
15185.6
13488.3
10646.3
14690.9
23778
23071.9
23913.1
23627.8
20727.9
19502.2
17090.9
15357.4
11370.5
14894.4
23639.7
26652.7
23555.4
27282.2
22899.2
23764.3
22332.8
23895.5
21435.9
21821.6
21266.2
21199.1
23362
27386.4
23246.1
27350.7
21667.4
24170.3
21479
24103.4
21518
21772.7
21506.6
21755.1
17998.7
17116.8
11589.1
12862.8
17866.6
16654.6
11405.2
12876.3
18256.2
17074.5
11846.2
12932.8
18330.8
16904.4
12216.7
12948.8
1614.32
1107
774.937
954.547
666.563
622.556
2276.57
1389.37
1062.95
1907.06
1549.57
1347.58
2666.05
2264.65
2290.9
3353.6
2774.4
2507.29
25008
22780.6
21189.5
22961.3
21459.2
20215.7
16447.5
15394.6
14820.4
11119.9
9750.56
9176.05
5103.7
3817.29
3257.24
22573.9
21092.3
19777
23102.7
21247.8
19763.1
17065
14819.8
13536.1
11102.7
8996.64
8140.39
5433.82
3804.36
3075.77
26819.9
26298.9
29167.6
26224.6
30024.2
26241.6
36190
27591.4
20647.4
21150.2
20339.8
19039.9
23332.4
22035.2
22878.6
19586.4
22669.1
22545
20918
22422.7
27943.7
25033.3
27590.5
27994.4
29924.6
30927.1
22978.4
23833.2
20596.9
19985.3
25055.6
25691.4
16387.8
8761.39
15283.4
9711.74
16601.7
8829.52
15216.2
9635.2
16397.3
8880.05
15191
10046.6
14766
10515.8
14939.8
10430.5
21088.5
18094.5
20927.4
18042.6
23253.8
21049.9
23443
20812.9
20515.2
15099.1
21444.6
14924
21362.9
17940.5
21618.3
17731.7
24014.8
20623.4
24015.5
20350.9
20290.3
15131.3
20219.4
15034.8
13466.4
8916.37
11958
7548.19
12571.8
7982.06
11506.7
7044.4
13783.7
9481.35
12142.1
7780.87
13794.9
9831.8
12107.9
7836
2530.31
1293.16
4576.09
2329.1
2723.49
1630.23
4899.88
2863.67
3373.23
2502.34
5448.46
3838.38
13183
20350.5
9492.02
9096.38
6346.68
19974.3
13969.6
8198.53
8235.51
5196.07
20716.9
16374.1
13052.1
10149
6157.84
665.29
500.371
1219.78
856.575
1007.17
697.29
1865.17
1462.85
1799.71
1433.39
2836.81
2297.02
20361.4
19875.6
13885.4
13466.8
9062.25
9286.5
7627.26
7154.43
4423.68
3633.95
19055.1
17483.1
14858.9
13212.7
11623
10500.2
8832.62
8146.75
5443.04
5526.43
15176.2
12464.8
15238.4
12126.7
18136.5
15196.7
18057.4
14929.9
12834
10597.8
12472.2
10669.2
15222.1
11914.4
15122.5
11889.4
17967.1
15182.1
17785.7
15127
13052.1
10413.4
13027.6
10551.7
10005.8
8648.57
6473.07
7020.72
9655.73
8484.49
6166.06
6668.1
10428.7
8812.26
6638.69
7446.99
10682.9
8814.52
6908.32
7557.12
1914.84
1697.04
1410.6
8494.3
4520.87
3693.79
1881.24
1872.26
1669.8
9219.6
5380.97
4570.49
2574.26
2909.88
2995.02
10129.6
6715.38
5999.5
18931.4
17875.5
17073.2
13121
12867
12680.5
9696.5
9691.97
9737.18
8452.61
8257.51
8092.81
11470.8
8273.98
7505.43
16111.4
15024.7
14263
12177.8
11483.9
11073.2
10284
9670.92
9299.66
10054.9
9015.63
8389.27
13922.3
9329.86
8419.56
4767.36
3016.49
2215.1
1971.13
5404.83
3298.72
2345.24
2017.63
4785.73
3008.41
2218.33
1986.76
5525.58
3368.96
2390.14
2038.35
4760.16
2964.88
2211.14
1968.76
5633.68
3407.09
2431.88
2025.46
6083.52
3622.66
2501.08
2122.48
6273.4
3771.08
2589.71
2210.43
5087.26
3163.77
2296.72
1988.49
4050.46
2715.53
2080.49
1911.54
4413.06
2835.56
2126.34
1840.1
3693.05
2543.57
1990.54
1830.41
5537.61
3411.01
2419.08
2087
4262.66
2841.13
2138.5
1976.3
5791.01
3578.14
2504.58
2154.94
4353.04
2930.26
2185.29
2010.5
3508.2
2545.28
1997.28
1864.8
2107.45
1972.82
1729.33
1750.44
3510.84
2526.29
1990.3
1859.2
2214.19
2001.17
1738.94
1761.08
3590.75
2516.64
1993.22
1863.68
2548.06
2098.81
1777.26
1805.55
3520.66
2435.55
1944.5
1896.58
2831.29
2163.78
1823.33
1789.56
3212.49
2342.47
1887.33
1801.08
650.209
1503.17
1345.91
403.786
-1035.72
1236.19
1183.46
433.666
902.066
1585.94
1376.91
427.102
-714.472
1330.47
1211.97
443.488
1373.04
1731.21
1427.58
425.872
-170.078
1486.02
1254.42
449.069
1944
1901.86
1496.77
463.655
399.741
1656.41
1313.57
469.014
2308.72
2054.77
1581.82
544.668
525.441
1781.36
1368.1
486.347
2463.15
2217.61
1622.08
515.505
139.936
1903.71
1467.22
516.365
2402.71
2145.42
1591.57
516.184
111.608
1846.58
1417.61
498.597
2475.2
2268.8
1650.21
478.722
63.8887
1953.66
1502.33
519.834
2531.23
2324.09
1697.95
490.283
168.929
2011.34
1544.88
533.434
1876.16
1458.51
1019.31
599.02
197.31
1854.4
1455.34
1019.95
599.748
197.565
1900.46
1470.54
1025.21
601.782
198.12
1883.56
1470.72
1027.88
603.556
198.698
1943.49
1486.88
1032.56
605.146
199.101
1917.6
1488.26
1036.84
607.871
199.987
1947.67
1508.44
1048.71
613.931
201.839
1993.68
1537.66
1065.73
622.615
204.493
1987.89
1506.58
1043.18
610.4
200.692
2123.35
1530.97
1050.14
613.018
201.413
1997.28
1501.53
1038.04
607.47
199.76
2120.38
1522.21
1044.46
610.049
200.49
2006.58
1524.37
1053.83
615.877
202.374
2161.9
1548.23
1059.85
617.963
202.935
2051.4
1552.71
1069.84
623.979
204.852
2209.53
1573.49
1073.71
624.967
205.085
1929.11
1465.98
1019.33
598.42
197.081
2030.07
1474.26
1019.59
598.078
196.947
1952.01
1475.49
1023.72
600.427
197.662
2048.44
1481.43
1022.94
599.62
197.397
1995.45
1490.58
1030.34
603.443
198.532
2085.66
1493.74
1028.65
602.266
198.161
2067.26
1508.01
1037.06
606.401
199.379
2130.34
1506.99
1035.18
605.336
199.04
2135.72
1517.01
1040.87
608.167
199.896
9346.62
14356.9
9876.68
14720.8
10585.5
15126.1
11087.8
15401.8
10682.7
14855.1
9966.63
11215.7
9953.15
11710.6
10037.5
11143.7
10219.6
11291.1
8292.44
1410.32
300.347
67.2179
11.8838
9213.07
2618.1
634.406
143.65
25.3861
8398.71
1410.93
298.637
66.5779
11.737
9322.61
2615.51
631.406
142.279
24.927
8503.07
1407.55
295.311
65.5383
11.528
9413.05
2611.37
626.842
140.701
24.6106
8457.6
1369.55
284.677
63.0047
11.0735
9334.74
2564.64
613.227
137.385
24.0026
8054.19
1271.3
263.645
58.5169
10.3067
8872.41
2441.58
585.602
131.551
23.0152
7219.53
1184.93
253.719
57.2252
10.1553
7387.1
2131.47
524.625
119.774
21.1515
7457.96
1204.36
254.83
57.1153
10.1032
7803.44
2247.32
548.292
124.192
21.8167
7131.6
1181.89
254.267
57.4886