/*--------------------------------*- C++ -*----------------------------------*\
  =========                 |
  \\      /  F ield         | OpenFOAM: The Open Source CFD Toolbox
   \\    /   O peration     | Website:  https://openfoam.org
    \\  /    A nd           | Version:  11
     \\/     M anipulation  |
\*---------------------------------------------------------------------------*/
FoamFile
{
    format      ascii;
    class       volScalarField;
    location    "2.3";
    object      gradTz;
}
// * * * * * * * * * * * * * * * * * * * * * * * * * * * * * * * * * * * * * //

dimensions      [0 -1 0 1 0 0 0];

internalField   nonuniform List<scalar> 
5712
(
7180.56
23597.9
5696.09
24200.6
4281.37
25045.9
6768.06
38659.4
8319.5
53167.1
8251.72
38695
7953.87
32097.6
8266.09
28668.8
5001.58
3082.81
13368.9
7918.37
4906.36
2642.57
14657.2
7273.79
5455.29
3937.79
17500.5
12272.8
4124.75
2952.59
17215.7
12468.9
9669.5
4088.03
8339.05
3708.95
3824.66
9003.12
33541
9099.22
12002
4071.49
43258.8
11758.6
11261
3908.81
23920.2
7428.99
12270.5
4287.55
20768.6
6609.28
5755.09
2853.38
8583.3
3334.84
6224.91
3367.84
8375.69
3203.27
7929.24
4513.09
7217.41
3124.96
10720.3
3844.44
3691.57
1286.23
12117.7
8374.07
7513.13
5480.31
13628.8
11206.9
7453.27
6450.51
7088.36
4766.03
9948.1
6621.15
4961.67
3641.28
2532.69
2075.22
4814.26
4159.19
2505.53
2414.5
4742.48
3096.8
2439.58
1559.78
6311.92
3424.12
4711.54
5708.29
8605.25
6119.37
6797.79
9743.15
4189.07
1979.44
2785.16
3275.79
2086.98
863.915
1206.45
1215.44
7521.51
13503.9
5113.39
15091.3
8839.73
13233.8
6299.4
15825.4
10072.2
12003.7
8136.33
15486.9
12067.2
14505.1
8974.56
8625.41
9463.35
14479.5
13269.3
12930.5
13208.4
19116.8
11765.9
8970.01
7699.75
8614.11
13574.1
15601.4
13894.8
18110
17357.6
14285.1
13208.7
17903.6
17010.2
12371.5
12035.1
16816.7
16410.8
10550.4
8249.38
9715.54
8414.95
10552.2
9360.9
11285.7
10766.9
15524.4
15815.5
9869.17
8505.59
9331.54
8879.65
9561.66
10037.4
10731.2
11953.5
14013
16097
8128.62
6376.76
5595.52
7139
11065.5
13513.8
7685.54
12179.2
4712.81
6218.94
7002.3
5762.93
1342.93
4744.2
706.766
1709.13
3931.97
8201.36
1460.7
2849.46
618.75
4003.19
356.268
1404.74
4616.78
4693.21
5245.33
3240.62
7293.89
5817.03
8579
5887.5
1058.32
2569.42
2598.93
1466.29
1457.5
1895.7
2067.31
1559.6
11029.4
6683.45
2095.62
12498.9
7152.84
2338.05
10576.1
6613.32
2224.91
12315.2
7164.29
2336.3
9732.5
6069.76
1990.77
12032.6
7207.35
2404.79
5355.69
2873.92
768.849
6791.06
4459.64
1550.36
8054.07
5551.69
1912.92
9281.45
5991.1
1985.68
11929.1
7414.8
2592.82
6381.44
3560.64
1120.66
6356.23
4563.44
1717.68
7505.1
5540.63
2029.39
9387.53
6576.7
2346.23
12059.8
7496.71
2653.98
298.297
2005.9
2833.31
4095.16
2161.24
2487.32
5434.28
5161.73
601.683
1037.51
642.491
1080.87
488.152
1418.48
871.175
1860.92
3225.98
1578.75
4080.39
2358.45
2178.26
3800.71
3398.96
956.139
6037.65
1491.78
-1875.89
753.23
1803.64
1358.76
1260.22
1179.73
9876.88
4584.86
2702.02
1696.37
10032.4
4769.51
3395.87
2143.97
9907.3
5138.02
4934.4
3503.83
3534.85
2570.86
1772.37
1705.45
12590.6
11204
5936.23
6167.83
13457.4
12639.5
6644.14
6706.68
5321.39
5486.46
10894.1
9127.62
3555.29
3720.81
2007.07
2272.27
4104.84
4081.27
2272.21
2429.11
3130.27
3373.63
1776.76
2169.33
4786.24
3407.64
4794.84
3473.74
7440.1
4499.17
7126.34
4803.74
2900.79
2471.35
3041.61
2251.47
1643.65
1561.37
1940.97
1324.86
11766.1
8339.02
6033.29
6227.53
11717
8524.09
6070.2
6197.78
12145.2
8823.87
6157.36
6017.76
13813.7
14799.1
12700.4
8599
5011.82
14023.6
13106.6
12317.7
10314.5
6858.39
13151.1
11984.8
9678.11
7561.36
4861.48
7215.93
6519.86
6824.51
7913.11
7406.16
6379.21
6877.87
7795.35
7665.94
6283.11
6923.68
7663.33
10585.3
7462.11
9991.07
6979.65
7986.66
6510.72
7599.94
6592.24
6411.48
7572.91
8788.8
7624.23
7864.3
6895.33
6818.87
6238.29
6146.7
6186.77
5066.87
7210.75
7030.34
4758.29
4676.51
2782.96
9096.59
7009.69
6334.86
5081.62
3873.79
2340.39
5620.95
4187.59
4739.6
2237.84
1745.59
1005.94
4979.03
3594.11
1749.88
1448.21
4142.5
1864.14
1639.2
868.197
3302.33
3089.03
2990.62
4432.88
4597.77
4418.53
3823.42
5695.62
3319.9
2194.36
2151.54
2994.8
1020.6
504.19
257.007
580.568
4538.89
1891.39
557.212
5272.34
1359.31
361.106
4573.85
2035.8
624.283
5250.47
1411.08
393.083
4234.57
1999.66
515.809
5141.97
1431.38
334.456
4583.53
2299.88
501.163
4231.61
2026.11
469.529
4245.32
2026.5
544.558
4300.52
2009.79
421.036
5111.33
1401.14
208.214
5839.15
2912.2
766.431
5359.29
2653.65
719.681
4969.41
2449.43
709.95
4812.16
2046.63
498.992
5531.95
1305.93
317.596
1807.7
651.955
128.189
-206.831
752.366
286.83
77.8513
-41.4495
1917.43
716.238
184.302
-127.336
956.555
399.742
192.235
89.7508
2062.82
798.837
280.31
-4.94523
1642.05
772.638
304.831
70.5134
1255.76
715.914
263.117
-8.00223
1185.37
785.911
466.05
280.441
1715.06
766.522
237.524
-183.101
1472.53
649.13
285.886
-184.921
2025.64
789.245
254.533
-133.691
1836.32
719.047
286.56
-304.427
1380.27
717.048
291.055
-57.7539
1134.1
576.591
310.871
3.14314
1025.65
636.169
383.299
238.387
785.368
490.417
331.17
197.416
2306.31
785.91
124.844
-410.433
2292.24
724.705
178.659
-560.894
2305.55
798.573
146.787
-390.423
2221.91
705.78
187.323
-543.484
2264.02
803.397
226.088
-277.142
2074.96
669.173
232.769
-444.295
1986.66
744.604
315.256
-35.707
2276.59
750.995
330.52
-519.245
1780.06
668.103
317.549
-122.378
1823.59
511.714
161.406
-380.19
727.66
186.174
44.4097
-79.3212
1882.64
546.953
181.359
-361.966
757.775
201.549
57.4379
-64.6045
1915.05
586.952
226.158
-317.053
770.812
219.172
74.7941
-46.4442
1726.88
554.692
261.474
-249.404
748.061
226.861
103.139
-14.0728
1581.96
553.413
286.731
-144.097
669.15
239.977
141.598
30.205
1107.48
450.008
221.496
-42.7772
631.287
315.729
194.072
103.73
1277.36
455.243
222.767
-103.875
635.899
273.635
168.224
67.4502
894.493
437.46
245.19
39.6259
568.429
333.839
214.87
139.224
634.506
398.922
275.067
172.568
476.763
333.691
236.815
180.514
-18.5962
8.0363
8.21862
5.80464
4.45012
-2.77945
5.41836
4.63608
3.2078
2.45965
9.67166
23.0496
16.768
11.1296
8.39795
27.8132
22.4834
14.5179
9.36994
7.0195
40.7353
41.4071
27.6485
18.0823
13.6139
113.835
76.3057
47.1438
30.1643
22.5498
137.054
90.1657
55.6506
35.6823
26.7525
199.4
119.495
71.6359
45.518
34.0732
72.167
60.61
39.1043
25.3476
18.9701
77.2156
57.1675
36.07
23.3241
17.4648
49.5686
48.5353
31.9098
20.8678
15.6933
91.2705
59.2609
36.1318
23.1968
17.3165
94.2713
72.4257
46.1558
29.8609
22.405
103.62
68.4536
42.2561
27.1572
20.3415
158.507
96.2797
57.859
36.7921
27.5294
132.452
79.4928
47.6952
30.3267
22.6553
-34.2976
4.12224
6.09653
4.45813
3.44536
-18.7326
1.30639
2.39107
1.7829
1.39609
-15.7482
13.5433
11.3827
7.74516
5.90398
-12.1078
4.64421
4.23234
2.90916
2.24086
7.65458
24.5038
17.402
11.5359
8.77266
12.9158
15.7299
10.1937
6.53748
4.94815
59.5409
47.8784
30.2874
19.6789
14.8721
39.7043
30.2393
18.7023
12.0532
9.11091
110.327
62.8161
37.0948
23.5543
17.5829
1609.58
3680.56
1622.18
3640.87
1768.36
3609.22
2107.43
3755.25
2202.29
3877.97
883.647
1374.27
1452.51
2320.13
469.521
671.819
167.303
224.078
8405.25
2005.65
459.166
102.443
25.4171
2288.9
615.977
163.718
37.1932
8.07278
8316.63
1968.18
450.118
99.5756
24.8871
2329.09
686.851
169.152
39.2899
9.74634
7959.84
1870.31
426.062
94.1209
23.5489
2260.69
664.346
163.183
37.7152
9.38942
7313.3
1702.82
386.664
85.3319
21.3535
2198.47
632.602
153.367
35.1309
8.69848
6146.92
1423.65
323.393
71.4566
17.9019
2081.2
582.61
139.689
31.7942
7.84808
2927.05
708.812
163.739
36.4357
9.1406
1016.18
289.013
68.7282
15.3686
3.78386
4349.56
1038.49
238.064
52.721
13.2065
1495.4
419.844
100.705
22.9065
5.69183
1720.97
420.097
97.4918
21.7987
5.47855
568.258
168.164
39.7363
8.87994
2.20677
594.685
144.293
33.5595
7.52858
1.89302
227.72
60.9987
13.3145
3.74417
0.722546
128.027
504.709
4539.88
-833.86
749.496
803.232
2343.04
2999.53
1888.18
3541.58
2971.85
4583.37
3580.02
4443.21
1861
2506.87
1986.69
2356.46
1033.35
1074.43
2303.34
1685.49
526.26
-441.276
-738.226
-885.251
-255.294
12922.3
3133.83
4250.61
2761.17
-142.431
-11.3744
2983.57
-1370.39
-753.783
-1046.23
-539.586
7094.59
3749.71
1313.18
1075.25
3670.66
2043.07
660.327
1398.55
-1453
-830.207
723.027
578.809
8690.38
4307.62
5337.37
2864.09
4089.93
4479.53
1558.89
-860.249
951.75
1634.38
1342.09
1160.77
1049.26
808.436
1336.25
1078.01
845.641
597.861
258.212
462.713
385.195
293.407
187.328
65.3804
-394.075
-328.753
-245.267
-150.67
-50.7339
-659.637
-550.925
-411.827
-253.523
-85.4437
-792.137
-662.813
-496.486
-306.196
-103.305
-222.128
-177.581
-124.583
-71.318
-22.7022
9374.78
8142.09
6969.04
6409.92
5969.19
2787.17
2451.49
2288.31
1911
1010.5
3253.3
2593.78
2184.19
1712.71
896.033
2124.46
1713.39
1489.09
1149.32
482.642
5.57571
43.3441
149.729
160.919
79.921
79.8522
155.177
191.393
166.01
70.3024
2532.53
2116.25
1668.3
1163.07
478.338
-830.676
-406.07
-160.746
-30.0868
5.9247
-600.198
-427.434
-259.105
-123.976
-32.3372
-738.069
-458.743
-237.832
-94.1037
-19.9683
-488.808
-406.457
-297.186
-177.058
-57.6956
5264.28
4770.08
4134.18
3830.21
3586.55
2885.1
2278.11
1890.41
1437.04
702.354
1212.11
1092.57
923.496
661.464
261.425
947.359
810.841
652.016
447.59
170.311
3061.25
2469.81
1882.5
1252.43
483.043
1810.16
1536.57
1207.88
802.45
291.028
576.094
483.227
377.309
250.228
91.4472
1233.95
1033.07
792.436
509.935
179.6
-1260.6
-1017.49
-735.103
-440.028
-145.655
-730.54
-596.252
-432.369
-257.681
-84.698
647.231
558.695
449.121
305.031
113.02
520.68
451.692
364.148
246.762
90.5179
5618.89
4108.58
3543.35
3270.46
2873.72
3291.39
2561.94
1981.8
1415.57
639.022
3930.97
3222.73
2609.48
2030.82
992.842
2289.63
1867.6
1455.92
1022.94
446.414
3482.59
2849.89
2178.12
1431.64
530.565
3393.14
2512.4
2036.21
1527.36
647.23
1362.56
1133.38
868.69
562.098
199.935
-763.591
-630.57
-463.751
-280.331
-93.1248
839.992
718.252
576.012
393.011
146.678
-27453.5
-44980.9
-22759.5
-36412.2
-24403.4
-51176.6
-29212.1
-64983.2
-17381.5
-11878.7
-19570.7
-12176.3
-16036.1
-10294.4
-19870.7
-10441.9
-22695
-17086.3
-33072.8
-23810.5
-19492.3
-15523
-27645
-20756.7
-15630.5
-15961
-12827.4
-12320.8
-15094.7
-14226.1
-38178.1
-10529.9
-14521.6
-5416.6
-46709.4
-12942.7
-12983
-4817.91
-28386.1
-8938.62
-14869.5
-5690.8
-25229.9
-7844.25
-11708.2
-4708.32
-14924.9
-5406.01
-11110.9
-4883.8
-12973.8
-4693.77
-11518.4
-5584.9
-10364.2
-4111.75
-13295.5
-4692.26
-4664.58
-1637.17
-9927.99
-6586.91
-8570.07
-5217.91
-8761.82
-7040.33
-7520.43
-5359.54
-8714.34
-4951.72
-10198.6
-6351.34
-5869.58
-3497.44
-3156.43
-1935.84
-5062.77
-3487.38
-2626.93
-1867.33
-5964.9
-3237.75
-3293.87
-1648.6
-7680.15
-3898.2
-4961.45
-5777.42
-9743.07
-6544.97
-6984.75
-9749.82
-5208.65
-2335.35
-2970.06
-3337.08
-2812.7
-1131.8
-1339.37
-1265.51
-11500.1
-13983.8
-6479.05
-15813.7
-11958.2
-13345.3
-7441.38
-16170.5
-12088.2
-12156.3
-8869.23
-15392.4
-8272.16
-6677.15
-9050.11
-10034.7
-10009.8
-9143.59
-10555.2
-12235.8
-13149
-18672.4
-6278.72
-6470.32
-7038.25
-8516.58
-13320
-13273.2
-9257.81
-16838.3
-12949.9
-12304.6
-9113.3
-16590.6
-12897.6
-10893.1
-8513.21
-15485.2
-12767.8
-7500.68
-5972.03
-7728.62
-6172.44
-8625.95
-6960.07
-9417
-7975.26
-14112.5
-12835.4
-7048.58
-6074.73
-7071.95
-6116.33
-7770.59
-7236.29
-9331.7
-9226.87
-13034.2
-13393.7
-6466.16
-5163.95
-4757.6
-6247.86
-8105.86
-11225.5
-6129.86
-10368.5
-4360.71
-5767.94
-6230.74
-5096.01
-823.58
-4115.27
-239.025
-1212.37
-2942.56
-7126.08
-647.068
-1987.23
-402.014
-3677.09
-139.045
-1136.4
-4483.88
-4468.4
-5165.07
-3105.22
-6944.53
-5398.56
-8359.34
-5493.64
-981.109
-2413.54
-2540.13
-1377.25
-1370.07
-1759.77
-2005.89
-1475.26
-5615.11
-1931.54
-7596.73
-2592.39
-5740.18
-2015.66
-7776.95
-2792.44
-5695.16
-1984.68
-8238.08
-3179.29
-3509.21
-983.303
-4365.43
-1677.78
-4921.98
-1912.7
-5918.77
-2243.51
-8696.03
-3466.58
-4473.67
-1353.03
-4001.9
-1989.01
-4823.71
-2308.37
-6513.86
-2856.77
-9011
-3409.24
-6056.4
-5683.22
-4548.54
-4478.45
-10147.5
-7760.18
-8235.01
-6827.5
-4113.86
-3589.26
-1680.74
-1214.49
-3874.14
-3763.41
-1543.6
-1618.01
-2913.84
-4580.34
-3477.06
-4950.25
-3741.84
-2437.67
-3162.66
-474.481
-6688.72
-1733.16
2603.14
459.081
-890.94
-252.768
264.431
706.798
-2456.63
-1754.13
-911.797
-552.009
-2607.71
-1857.88
-1360.23
-636.564
-2909.07
-2229.45
-1795.63
-875.946
-1152.67
-66.523
674.105
1102.8
-5036.53
-5431.75
-3876.27
-3640.98
-6776.46
-6797.3
-5615.98
-4722.21
-2541.85
-2861.33
-3829.95
-4423.86
-2331.18
-2032.31
-961.469
-887.058
-3595.86
-2824.96
-1808.26
-1421.53
-1305.06
-1479.64
-201.755
-558.909
-1690.83
-1216.49
-2464.11
-1816.97
-2671.89
-2214.69
-3816.5
-2986.44
-593.641
-362.615
-1192.61
-709.007
414.089
541.419
-292.36
163.14
-3595.78
-4547.63
-3087.16
-4600.02
-3554.59
-4533.51
-3158.78
-4591.31
-3740.79
-4190.45
-3333.35
-4360.56
-2818.15
-4689.83
-2427.12
-2157.45
-2384.79
-7054.35
-5008.86
-4629.79
-4843.33
-5038.81
-5659
-4766.33
-4057.38
-3812.08
-3045.39
-5422.37
-5460.92
-7127.86
-11023.1
-5131.1
-4909.25
-6839.04
-10504.1
-4709.45
-4520.98
-6310.74
-9680.6
-6884.57
-5283.72
-6219.56
-4729.89
-5454.4
-4342.41
-5601.35
-5159.98
-5846.46
-8947.93
-5577.82
-5263.18
-4739.38
-4758.42
-4281.11
-4531.3
-4442.93
-5307.18
-4116.81
-7846.16
-3877.9
-2765.81
-2652.8
-957.128
-5573.16
-4885.64
-4318.53
-3178.24
-2058.93
-738.298
-3159.93
-2528.62
-3201.95
-968.21
-438.352
120.305
-3591.96
-2346.2
-630.035
-361.839
-2644.98
-710.341
-283.474
185.089
-1898.7
-1979.81
-2098.16
-3963.22
-2953.89
-3358.84
-3004.63
-5532.14
-2018.25
-1289.43
-1147.59
-2405.38
252.078
392.934
813.662
127.277
-3910.05
-1137.72
-7407.27
-744.071
-3653
-1225.67
-7201.08
-771.875
-2796.93
-739.955
-6546.44
-602.03
-2902.33
-647.637
-2676.67
-619.625
-2914.53
-885.026
-3060.56
-569.814
-6157.35
-782.097
-4047.46
-789.059
-3732.9
-597.25
-3798.9
-744.423
-4225.6
-624.556
-6466.81
-777.962
-767.326
-155.003
176.455
438.373
-257.495
-38.2823
68.4019
137.987
-755.523
-120.033
192.784
411.664
-173.901
36.0698
70.4651
79.9215
-772.382
-79.3168
192.215
360.811
-3.97479
245.69
382.693
421.672
555.171
483.286
555.697
575.29
1014.43
722.704
557.469
408.341
-332.755
127.461
395.53
664.044
-269.477
180.555
312.63
663.915
-833.921
-63.733
255.122
546.975
-637.036
63.6119
279.022
813.55
138.741
317.359
423.385
563.107
64.0084
282.466
315.858
477.748
592.455
494.348
412.964
327.379
415.487
386.876
318.356
300.851
-1221.37
-268.193
209.512
715.139
-1525.42
-318.409
73.9828
891.636
-1171.27
-231.18
227.8
728.522
-1466.74
-293.892
75.3096
881.903
-1088.82
-174.879
181.708
628.513
-1331.4
-247.303
41.9369
800.435
-722.235
-30.4925
164.732
451.226
-1377.32
-209.114
42.1149
993.71
-672.391
26.5164
191.278
627.973
-1419.66
-244.272
6.74472
626.647
-618.502
-93.5078
25.6084
158.788
-1325.9
-208.808
25.3206
629.087
-588.469
-81.8185
28.9722
156.361
-1136.02
-139.697
33.2128
610.39
-500.864
-52.8245
42.3414
163.178
-931.328
-82.4309
16.4004
546.601
-409.556
-23.3194
42.209
156.1
-679.704
10.457
64.9269
467.968
-210.403
44.0614
56.6763
151.82
-300.746
136.665
219.091
437.354
103.116
208.293
184.767
215.866
-558.994
38.3405
136.746
448.459
-17.7984
133.528
120.111
184.048
12.1918
241.992
266.22
395.173
223.587
267.455
229.812
228.929
323.174
330.172
273.082
282.999
345.431
310.163
241.182
210.19
97.8186
28.1086
11.4028
6.27409
4.51722
41.3345
13.4319
5.81927
3.26576
2.35308
114.079
40.6999
19.4912
11.5113
8.47472
65.4576
29.3569
15.6614
9.59762
7.13983
140.197
56.8498
29.3205
17.7018
13.0992
165.772
84.9745
48.0174
29.8979
22.3437
183.931
98.1282
56.0738
34.9473
26.0602
205.331
120.385
71.2945
45.005
33.6541
167.636
74.9001
40.4934
24.8472
18.5457
142.075
66.0405
36.22
22.2576
16.6103
151.337
61.5507
32.2445
19.5021
14.4617
124.608
61.3486
34.5563
21.3486
15.9699
180.063
85.9775
47.4482
29.2642
21.8088
145.119
74.6453
42.2869
26.2679
19.6382
171.089
97.9269
57.6558
36.3311
27.1563
142.496
80.9749
47.5312
29.9092
22.3646
106.417
24.9546
9.19605
4.88372
3.47753
49.4299
10.0522
3.4863
1.7967
1.25485
114.459
32.2758
14.0197
8.0143
5.82094
52.3547
12.7234
5.26723
2.96763
2.12813
117.801
38.9338
18.7837
11.0985
8.10388
58.9071
21.2022
11.0201
6.75652
4.96719
130.503
54.3028
29.0719
17.6381
12.9898
77.2867
32.5675
17.8033
10.8954
8.02069
109.767
60.3983
35.1419
21.9622
16.4217
-1784.87
-3363.83
-1831.88
-3366.93
-1988.7
-3387.19
-2178.35
-3472.25
-2105
-3486.52
-825.699
-1287.8
-1373.54
-2142.52
-411.091
-608.886
-106.227
-166.271
-8589
-2032.15
-462.435
-102.69
-25.3736
-2311.01
-623.054
-165.074
-37.3344
-8.06403
-8441.64
-1984.89
-451.864
-99.5953
-24.809
-2356.13
-695.002
-170.423
-39.4134
-9.73781
-7984.65
-1871.26
-425.406
-93.7929
-23.4182
-2280.14
-669.476
-163.852
-37.7378
-9.3645
-7247.16
-1689.7
-383.864
-84.6936
-21.1781
-2190.47
-631.881
-153.05
-35.0002
-8.64966
-6049.43
-1405.47
-319.803
-70.7149
-17.7191
-2040.76
-576.098
-138.443
-31.5228
-7.7777
-2890.71
-700.073
-161.776
-36.0126
-9.03742
-983.746
-281.558
-67.158
-15.0444
-3.70792
-4284.36
-1024.31
-235.088
-52.1023
-13.0582
-1452.72
-411.781
-99.1376
-22.587
-5.6164
-1700.23
-415.005
-96.293
-21.5311
-5.41143
-543.005
-161.695
-38.2557
-8.5605
-2.12938
-580.472
-140.884
-32.7407
-7.3407
-1.84481
-205.463
-55.1437
-11.9079
-3.42814
-0.644513
167.543
-1072.56
-5389.78
868.933
-6407.07
-2814.09
-6201.61
-2851.26
-11301
-6024.39
-12671.6
-6714.14
-130.994
-515.632
-809.376
-953.811
-855.278
-341.264
-214.777
-801.369
-1216.85
-1345.36
-1085.43
-367.501
-111.062
-118.687
-412.842
-415.53
-590.188
-583.946
-568.361
-538.85
-506.908
-487.257
-391.77
-354.552
849.343
2188.63
3547.88
2517.64
2313.87
1113.11
796.492
2277.7
3687.18
4273.91
3567.65
1624.92
-118.103
-99.8062
-75.6068
-47.1015
-15.991
-465.562
-394.159
-299.176
-186.682
-63.4353
-730.735
-618.609
-469.51
-292.964
-99.5526
-860.855
-728.486
-552.696
-344.771
-117.139
-771.813
-652.945
-495.146
-308.703
-104.845
-309.867
-263.447
-200.087
-124.497
-42.1596
-193.529
-163.437
-123.734
-77.0525
-26.1546
-723.111
-611.775
-464.055
-289.441
-98.3343
-1097.71
-928.421
-704.096
-439.126
-149.191
-1212.78
-1024.99
-776.864
-484.35
-164.539
-977.684
-825.603
-625.323
-389.726
-132.382
-332.149
-281.3
-213.342
-132.903
-45.0977
-100.204
-84.7571
-64.2658
-40.0643
-13.6063
-107.15
-90.6996
-68.8239
-42.9325
-14.5856
-372.891
-315.845
-239.839
-149.702
-50.8755
-375.383
-318.012
-241.527
-150.777
-51.2447
-533.03
-451.438
-342.767
-213.932
-72.7009
-527.359
-446.592
-339.055
-211.602
-71.9075
-513.298
-434.69
-329.993
-205.913
-69.9632
-486.372
-411.617
-312.293
-194.794
-66.175
-457.701
-387.396
-293.798
-183.111
-62.1622
-439.239
-371.127
-281.082
-175.068
-59.423
-354.053
-299.556
-226.632
-140.709
-47.6137
-319.333
-269.375
-203.514
-126.412
-42.8256
754.37
629.662
474.774
296.939
101.516
1935.84
1611.48
1215.03
762.183
261.873
3102.16
2565.8
1937.75
1228.51
429.516
2186.42
1804.52
1367.07
871.568
306.004
2041.43
1689.92
1274.36
798.408
259.89
1012.81
856.167
654.828
411.416
130.763
708.436
591.679
445.726
278.154
94.8843
2020.97
1685.23
1269.54
793.633
271.443
3251.63
2700.45
2034.05
1276.75
439.464
3744.16
3096.52
2332.81
1470.97
509.857
3125.18
2584.54
1948.89
1230.16
424.883
1438.76
1202.42
914.68
580.145
200.135
283.713
666.709
956.742
1095.15
987.307
477.428
427.128
1008.28
1409.77
1510.6
1208.93
449.846
231.153
219.965
529.109
514.114
697.036
674.238
658.067
609.125
588.732
501.601
529.793
399.667
-693.21
-1951.92
-3138.17
-1969.4
-1644.92
-381.5
-727.915
-2167
-3442.1
-3833.06
-2933.68
-869.385
256.624
217.753
165.667
103.57
35.2298
602.699
511.013
388.472
242.711
82.5344
864.638
732.865
556.95
347.894
118.288
989.53
838.542
637.131
397.922
135.289
892.39
756.465
574.879
359.054
122.07
434.463
370.655
282.841
176.842
60.0832
386.244
327.633
249.193
155.759
52.9782
911.053
772.053
586.642
366.414
124.583
1273.17
1078.32
818.96
511.361
173.844
1363.39
1153.99
875.999
546.839
185.895
1090.55
922.596
700.109
436.998
148.563
407.462
346.066
263.307
164.497
55.914
209.101
177.444
135.009
84.4058
28.7108
198.976
168.843
128.456
80.3033
27.3141
478.391
405.707
308.48
192.756
65.5479
464.843
394.219
299.742
187.294
63.6905
630.088
534.229
406.103
253.708
86.2656
609.426
516.646
392.688
245.305
83.4052
594.939
504.493
383.525
239.6
81.464
550.426
466.486
354.455
221.369
75.2561
532.628
451.938
343.68
214.697
72.983
453.166
383.94
291.623
182.061
61.878
480.649
408.817
311.242
194.37
66.015
361.399
306.387
232.729
145.218
49.3259
-611.804
-507.265
-380.555
-237.524
-81.2282
-1720.05
-1426.59
-1073.08
-672.976
-231.515
-2725.8
-2240.23
-1685.48
-1068.98
-375.188
-1668.09
-1342.27
-997.181
-630.107
-221.255
-1402.29
-1115.8
-810.639
-491.414
-149.666
-311.912
-224.57
-142.813
-71.0905
-8.57526
-646.147
-538.58
-405.16
-252.734
-86.2322
-1920.82
-1600.26
-1204.98
-753.413
-257.82
-3027.66
-2507.99
-1885.82
-1183.32
-407.6
-3336.3
-2740.99
-2054.68
-1293.02
-448.462
-2533.48
-2064.06
-1537.62
-964.194
-332.168
-730.909
-577.116
-418.301
-257.72
-87.4144
-1410.98
-889.258
-222.57
699.387
1000.74
1272.39
603.839
-10749.3
-1658.14
-3098.3
-1483.78
279.568
-3944.98
865.548
2496.43
1193.04
-5824.36
-2634.65
-414.819
-518.433
-3315.11
-1229.16
-226.871
-988.337
2179.41
1377.4
-482.882
-132.156
-7661.12
-3549.8
-4206.62
-2023.4
-3479.74
-3268.65
-1040.12
1397.47
-344.331
-678.243
-444.294
-389.221
-497.545
-581.947
-545.144
-346.032
-235.497
-178.585
-100.143
-183.188
-142.983
-105.222
-67.7876
-24.3974
632.701
536.63
407.729
254.452
86.4601
902.556
762.747
577.547
359.489
121.947
1147.59
970.032
734.838
457.661
155.315
547.866
464.619
351.24
217.171
73.0946
-7680.76
-6847.51
-6153.84
-6227.64
-6514.47
-1054.36
-704.643
-836.068
-985.801
-704.178
-2162.83
-1586.39
-1377.38
-1214.27
-755.827
-946.022
-619.637
-574.533
-521.441
-236.036
258.566
211.564
140.491
65.6636
12.53
-3284.33
-2685.21
-2064.95
-1405.69
-567.022
783.445
655.938
484.169
289.574
93.4158
2170.63
1773.45
1311.41
808.126
273.834
1070.99
898.016
673.337
414.925
139.385
-4050.93
-3755.66
-3400.61
-3480
-3685.59
-1796.63
-1279.3
-1087.93
-928.906
-543.113
-318.154
-263.729
-245.228
-217.398
-108.666
-413.949
-330.411
-267.138
-199.024
-85.235
-2758.64
-2227.01
-1710.47
-1156.56
-457.011
-1030.04
-833.642
-643.755
-436.045
-163.827
-170.722
-125.679
-94.9461
-68.7842
-28.9605
-851.705
-697.725
-529.373
-342.044
-122.058
1945.81
1626.89
1220.75
755.222
255.194
1241.46
1046.29
787.936
486.819
163.974
-401.805
-324.815
-253.347
-174.684
-67.5862
-95.6623
-70.752
-59.4758
-49.4093
-22.3243
-4648.91
-3232.07
-2839.32
-2837.63
-2796.43
-2567.79
-1908.28
-1452.41
-1066.87
-516.317
-2787.26
-2186.55
-1759.36
-1472.43
-778.272
-1487.12
-1142.78
-871.16
-640.961
-315.409
-2913.38
-2348.93
-1785.12
-1182.01
-445.992
-2248.54
-1466.92
-1204.37
-999.986
-470.875
-881.744
-713.684
-540.868
-353.575
-128.642
1261.44
1065.43
804.537
498.506
168.317
-262.454
-201.19
-163.147
-126.142
-54.6549
1.45208
44.2972
102.36
134.338
99.0229
-7.64067
-19402.1
-17125
-16344.3
-18628.8
-14213.6
-11248.8
-12817.7
-9729.75
-16793.5
-14703.2
-15471.8
-14537
-13574.3
-11558.2
-14263.1
-15955.6
-14258.3
-13125.2
-14804.6
-11982.4
-10147.3
-10725.7
-8602.01
-15051.6
-13355.1
-13865.3
-12616
-12003.9
-11215.6
-11562.1
-12519.1
-11471.3
-10387.4
-11365.5
-9952.55
-8543.45
-8959.9
-7700.2
-12591
-11415.8
-11719
-10670.6
-10191.6
-9427.28
-9681.96
-8732.05
-8214.03
-7329.39
-7772.68
-7368.31
-6606.81
-6658.26
-6098.54
-9054.58
-9138.25
-8541.81
-8605.03
-7614.04
-6879.89
-7633.75
-5579.76
-5332.32
-4718.68
-4923.88
-4934.25
-4467.26
-4397.31
-4067.15
-5992.61
-5982.2
-5725.25
-5590.12
-5210.23
-4705.87
-5084.32
-2007.93
-1936.29
-1707.78
-1768.48
-1823.05
-1704.61
-1612.26
-1504.53
-2274.05
-2266.01
-2126.58
-2023.25
-1958.51
-1797.46
-1921.51
-7411.75
-7311.05
-11033.5
-11892.5
-6984.94
-6209.03
-9684.08
-7878.93
-5861.26
-4429.75
-5820.21
-4389.75
-5852.86
-5592.44
-4453.66
-7394.56
-7021.59
-9818.3
-10707.3
-6526.1
-5917.11
-8543.27
-7368.34
-5850.72
-3943.24
-5750.04
-4154.35
-5262.72
-5056.28
-4520.54
-6768.54
-6459.18
-8329.56
-8929.79
-6079.54
-5667.93
-7460.21
-6613.9
-4875.35
-4323.19
-4864.13
-4544.14
-4555.3
-4552.76
-4691.91
-5488.49
-5292.02
-6250.95
-6562.08
-5033.92
-4717.54
-5794.24
-5298.06
-4713.63
-3932.87
-4636.78
-4179.13
-4347.28
-4307
-4240.44
-3804.04
-3690.27
-4139.39
-4294.68
-3434.29
-3185.33
-3904.65
-3591.5
-3330.98
-3048.87
-3255.79
-3192
-3051.84
-2989.34
-3028.8
-1419.32
-1378.14
-1514.23
-1563.57
-1276.32
-1174.54
-1436.68
-1325
-1091.41
-1120.44
-1165.7
-1213.92
-1132.61
-1096.91
-1107.6
7148.03
23110.5
5664.7
24198.5
4265.13
25047.8
6763.87
38667.6
8314.61
53178.7
8235.28
38691.5
7919.97
32080.4
8242.71
28046.9
4994.44
3081.12
13369.7
7918.49
4904.85
2642.39
14660.5
7274.95
5421.16
3911.22
17149.8
12042.6
4104.18
2944
17230
12486.2
9675.52
4081.39
8339.5
3706.61
3819.95
9010.84
33550.1
9100.49
12004
4071.54
43268.9
11760.8
11263.2
3909.48
23932.6
7431.26
12274
4288.11
20785
6612.23
5698.89
2825.97
8431.93
3278.03
6225.61
3368.35
8389.78
3208.6
7928.32
4513.25
7221.97
3127.15
10729.2
3847.79
3693.71
1287.06
12116.7
8373.38
7512.97
5480.12
13627.2
11205.7
7453.4
6450.34
7088.49
4765.99
9947.35
6620.86
4962.05
3641.3
2532.34
2075.04
4814.9
4159.33
2505.59
2414.51
4743.27
3096.87
2439.35
1559.59
6312.74
3424.66
4711.71
5708.58
8605.11
6119.67
6797.86
9743.54
4190.39
1980.01
2785.33
3275.98
2087.12
864.013
1206.35
1215.45
7476.29
13498.7
5081.53
15082.2
8841.68
13229.6
6302.57
15822.4
10072.4
12002.7
8137.08
15486.2
12066.2
14503
8974.12
8625.83
9464.09
14477.6
13268.1
12929.7
13208
19116.8
11764.2
8969.13
7699.36
8614.12
13574.5
15624.4
13932.8
18115.5
17339.2
14278.1
13203.4
17895.6
17005.2
12368.9
12031.6
16815.3
16409
10549
8248.36
9714.47
8413.89
10551.1
9359.56
11284.2
10765.1
15523.7
15814.5
9868.05
8504.58
9330.72
8878.67
9560.98
10036.4
10730.7
11952.6
14013.1
16096.5
8128.13
6376.51
5595.32
7138.95
11064.5
13513.1
7685.14
12178.8
4712.76
6219.03
7002.06
5762.84
1342.8
4744.19
706.682
1709.1
3931.84
8201.18
1460.7
2849.43
618.659
4003.25
356.16
1404.71
4616.87
4693.33
5245.54
3240.7
7293.9
5817.06
8579.25
5887.57
1058.32
2569.48
2599.02
1466.32
1457.49
1895.72
2067.35
1559.62
11056.4
6697.19
2103.88
12505.3
7162.3
2341.29
10572.4
6612.26
2224.81
12312
7162.65
2336.09
9730
6068.52
1990.46
12030.7
7206.05
2404.44
5354.92
2873.42
768.681
6790.12
4458.99
1550.15
8052.81
5550.85
1912.64
9279.76
5990.05
1985.36
11927.9
7413.81
2592.48
6380.63
3560.11
1120.46
6355.3
4562.74
1717.41
7504.07
5539.81
2029.07
9386.48
6575.82
2345.89
12058.9
7495.84
2653.62
303.711
2007.99
2847.6
4099.63
2163.63
2488.41
5442.24
5164.31
584.783
1024.88
623.316
1063.93
492.464
1418.1
875.58
1860.1
3238.16
1583.99
4085.02
2359.76
2181.98
3808.68
3403.67
960.056
6040.5
1493.8
-1863.91
761.593
1809.37
1363.94
1269.94
1187.5
9889.31
4581.04
2691.05
1688.43
10023.6
4769.39
3393.75
2143.83
9902.39
5137.06
4935.83
3503.52
3538.89
2571.41
1777.32
1707.25
12587
11202
5937.23
6167.92
13454.8
12637.8
6644.7
6706.68
5322.44
5486.48
10890.5
9125.89
3557.46
3721.41
2008.84
2272.87
4106.17
4081.65
2273.07
2429.43
3132.73
3374.22
1779.06
2170.03
4786.66
3407.67
4794.75
3473.67
7437.74
4498.49
7125.11
4803.17
2902.59
2471.92
3042.06
2251.73
1645.79
1562.41
1941.61
1325.32
11796.2
8344.31
6035.54
6228.02
11708.7
8523.4
6068.9
6197.65
12137.5
8820.43
6155.65
6016.55
13808.7
14795.5
12695.3
8595.48
5010.76
14020.7
13102.7
12313.4
10310.9
6856.99
13148.7
11982
9675.66
7559.58
4860.72
7215.3
6523.5
6820.43
7907.04
7404.12
6378.9
6875.4
7794.25
7663.78
6281.63
6922.8
7662.67
10583.4
7460.93
9988.62
6978.24
7984.25
6509.23
7597.79
6590.79
6410.42
7571.98
8787.23
7623.02
7862.37
6893.94
6817.01
6236.93
6145.22
6185.58
5066.06
7209.83
7028.75
4757.3
4676
2782.5
9095.17
7008.75
6334.36
5081.14
3873.36
2340.01
5619.61
4186.71
4739.59
2237.71
1745.85
1006.06
4978.98
3593.96
1750.03
1448.26
4142.5
1864.05
1639.51
868.331
3302.01
3088.66
2990.41
4432.49
4596.82
4417.78
3822.92
5694.97
3319.9
2194.25
2151.58
2994.65
1020.91
504.334
257.3
580.689
4543.55
1896.25
559.674
5277.62
1367.42
363.152
4572.5
2035.97
624.301
5248.24
1409.62
393.119
4233.56
1999.34
515.787
5141.18
1430.78
334.329
4582.77
2299.45
501.023
4230.79
2025.69
469.4
4244.44
2026.09
544.441
4299.6
2009.36
420.91
5110.64
1400.79
208.106
5838.31
2911.72
766.265
5358.39
2653.19
719.529
4968.52
2448.99
709.811
4811.34
2046.23
498.86
5531.28
1305.71
317.528
1800.52
647.828
125.73
-207.755
744.922
283.05
76.0618
-42.2075
1917.74
716.308
184.266
-127.529
956.684
399.78
192.164
89.6052
2062.73
798.809
280.272
-5.06427
1641.93
772.616
304.808
70.4084
1255.86
715.977
263.168
-7.99903
1185.97
786.179
466.186
280.494
1715.08
766.555
237.549
-183.114
1472.57
649.179
285.924
-184.882
2025.48
789.213
254.531
-133.729
1836.2
719.033
286.569
-304.405
1380.49
717.167
291.128
-57.7216
1134.27
576.701
310.942
3.19159
1026.1
636.391
383.421
238.446
785.649
490.581
331.272
197.48
2305.44
784.909
123.295
-411.59
2294.7
725.291
178.059
-562.626
2305.09
798.355
146.743
-390.517
2221.43
705.603
187.392
-543.363
2263.64
803.272
226.079
-277.141
2074.51
669.027
232.785
-444.199
1986.36
744.494
315.217
-35.7581
2276.19
750.884
330.513
-519.177
1779.87
668.049
317.525
-122.428
1829.03
513.716
161.778
-382.626
731.167
187.315
44.5653
-80.2568
1880.1
546.153
181.203
-361.559
756.702
201.245
57.351
-64.4255
1914.48
586.739
226.162
-316.919
770.512
219.068
74.7842
-46.3614
1726.52
554.565
261.457
-249.338
747.882
226.793
103.124
-14.0447
1581.73
553.339
286.71
-144.066
669.04
239.935
141.579
30.2078
1107.49
450.043
221.525
-42.743
631.308
315.751
194.085
103.74
1277.26
455.228
222.77
-103.848
635.85
273.617
168.214
67.4484
894.603
437.546
245.248
39.6757
568.528
333.908
214.914
139.255
634.704
399.053
275.152
172.632
476.926
333.804
236.887
180.566
-19.7404
7.30225
7.76682
5.50386
4.2138
-3.54159
4.91294
4.30894
2.97976
2.27549
9.65168
23.0395
16.758
11.1207
8.38636
27.8139
22.4896
14.5236
9.37586
7.01686
40.6861
41.3718
27.6176
18.055
13.5853
113.774
76.2582
47.1037
30.1306
22.5189
137.045
90.1543
55.6399
35.6736
26.7493
199.422
119.504
71.6392
45.5191
34.0754
72.1257
60.5732
39.0714