/*--------------------------------*- C++ -*----------------------------------*\
  =========                 |
  \\      /  F ield         | OpenFOAM: The Open Source CFD Toolbox
   \\    /   O peration     | Website:  https://openfoam.org
    \\  /    A nd           | Version:  11
     \\/     M anipulation  |
\*---------------------------------------------------------------------------*/
FoamFile
{
    format      ascii;
    class       volScalarField;
    location    "2.3";
    object      gradTx;
}
// * * * * * * * * * * * * * * * * * * * * * * * * * * * * * * * * * * * * * //

dimensions      [0 -1 0 1 0 0 0];

internalField   nonuniform List<scalar> 
5712
(
-6565.46
-8391.43
-15605.8
-22777.2
-23229.7
-40106.3
-17872.7
-45536.4
-14564.6
-32001
-21776.8
-33119.4
-19550.4
-25618.9
-8594.13
-9822.05
-14618.4
-16740.9
-18917.6
-18760.3
-14902.7
-18427.3
-21971.9
-19724.7
-5329.74
-3995
-6631.53
-4450.39
-12346.5
-9850.63
-21101.3
-15258
-16359.5
-16990.6
-18135.7
-17254.9
-6327.77
-4974.25
-38765
-51899.5
-25036.8
-30742.6
-52183.6
-67705.4
-26995
-30903.2
-28713.4
-40567.9
-25043.2
-33207.4
-14637.9
-23614.8
-2797.75
-942.217
-2948.72
-1062.02
-8450.06
-3407.58
-11606.6
-4265.46
-8240.63
-3164.18
-8793.09
-2817.69
-15000
-4769.92
-19359.9
-6527.66
-23773.5
-11785.9
-21763.7
-12902.6
-22331.4
-14440.7
-19637.9
-14786.8
-17080.8
-10141.8
-17070.4
-8681.95
-22452
-14373.3
-22500.2
-14511.5
-20737.9
-15663.1
-20988.2
-15739.1
-18453
-11726.1
-19114.3
-12019
-17433.2
-7534.83
-8038.92
-9770.4
-17505.7
-8231.27
-7000.69
-9882.18
-18465.7
-7505.5
-9122.4
-9854.83
-19383.4
-7689.69
-9928.13
-10302.8
-3625.8
-3957.1
-1215.66
-2365.89
-10630.3
-11232.4
-4093.17
-7228.83
-13613.1
-15144.2
-6526.18
-11083.9
-12271.1
-1131.64
-13493.8
-16579.3
-8966.94
-793.653
-7481.05
-12093.5
-19457.7
-13400.4
-9790.34
-11861.1
-10332.3
-8879.83
-13911.7
-3494.92
-2890.04
-1993.65
-1979.11
-9865.39
-8350.28
-5916.82
-5632.24
-12335.4
-10492.6
-7730.15
-6942.04
-5870.97
-7456.89
-12094.3
-12516.3
-13960.5
-12708.5
-15730.7
-13721.1
-10569.6
-8892.27
-9026.27
-9551.72
-11901.3
-9467.9
-10825.8
-7950.46
-9348.33
-6503.44
-10842.2
-7131.56
-10210.6
-4858.2
-8750.99
-9527.8
-12528.3
-16392.2
-13777
-20086.2
-6951.8
-7763.59
-9035.4
-2993.52
-7792.43
-15052.3
-7389.49
-16123.2
-13636.8
-24785.1
-13873.4
-26287.2
-5875.56
-12907.5
-5333.34
-13741
-8105.53
-6172.49
-11247.9
-4493.39
-8371.13
-1771.15
-9823.23
-856.048
-7777.86
-9210.86
-11779.3
-5463.08
-6426.17
-10847
-10416.5
-7156.44
-2312.23
-2047.03
-1844.48
-1658.24
-1527.86
-1374.47
-6861.1
-5676.22
-4946.59
-4388.11
-3563.35
-3112.87
-8451.44
-7339.77
-6802.44
-5289.92
-4356.77
-4134.59
-6591.88
-5878.25
-5750.52
-10953.9
-8411.5
-7119.58
-10270.5
-7670.96
-6263.35
-10792.4
-8595.23
-7508.42
-6636.69
-4421.8
-3472.79
-15764.1
-13745.1
-11971.2
-10087.5
-8467.12
-7087.67
-8909.71
-6995.29
-5638.61
-7440.92
-5431.75
-4219.45
-7586.48
-4260.6
-2433.73
-10305.7
-13977.2
-8139.37
-10534.5
-11058.7
-16265.8
-9869.14
-14391.5
-45.5971
-734.437
500.611
-102.564
-2960.1
-3357.44
-1223
-658.16
-688.185
-2402.96
-9361.8
-13685.4
-6644.37
-3629.83
-9823.61
-9749.65
-15105
-16635.4
603.178
4096.82
-7529.19
-7101.15
-7124.73
-5497.83
-1027.2
-548.463
-660.25
-262.555
-1993.97
-218.047
352.676
855.873
-9217.11
-2418.55
-6216.05
-1633.84
-8977.71
-2747.87
-10869
-3517.84
-8771.04
-11888.3
-8119.37
-11604.6
-14051
-14909.5
-13419.6
-14131.4
-5648.14
-9454.07
-6513.65
-9385.89
-8617.47
-11186.3
-9508.76
-11310.2
-13983.8
-13887.7
-14645.6
-13954.2
-5703.12
-9157.38
-6208.05
-9335.86
68.5542
-1434.71
-7525.14
-4828.65
639.71
-1017.65
-6972.19
-4274.01
-386.435
-1686.95
-7700.71
-5258.79
-844.211
-1961.02
-7752.49
-5454.7
685.995
793.328
-175.14
-28.1999
2908.95
2954.18
195.514
350.37
567.773
1972.68
-1747.98
-1103.77
10256.9
9519.54
5572.66
4251.47
386.69
10448.9
10809.2
4331.87
6394.26
773.94
-10175.2
-8026.97
-7205.52
-6837.73
-4262.77
818.045
768.404
22.952
-88.8162
2586.5
2577.9
64.8005
-198.407
2599.23
3199.6
-770.416
-1128.58
5136.98
2363.51
8205.74
5190.91
3668.31
2813.56
4131.25
3624.72
-546.702
-1538.76
-3748
-2368.55
-1032.32
1042.8
-1041.49
756.131
-1813.94
-456.723
-2286.32
-2630.21
-5250.81
-4818.65
-9978.6
-6036.82
-8100.54
-8186.29
-12301.3
-9985.11
-7954.01
-4723.04
-3995.28
-3988.17
-11759.4
-5213
-12936.7
-5845.56
-13719.6
-10190.6
-14642.8
-10918.6
-9635.44
-3860.06
-10793.1
-4469.9
-6405.81
-5155.46
-5098.33
-7570.73
-4183.04
-4746.62
-4373.89
-7022.34
-7376.62
-5112.89
-5753.35
-8685.77
-8932
-5558.17
-7148.41
-8973.99
798.89
864.606
977.309
14.3499
301.536
341.424
2918.05
3132.08
3143.46
203.277
865.293
875.199
3679.37
4154.17
4283.57
-656.741
836.747
1145.99
1290.05
1109.41
808.326
3874.04
3983.23
3728.92
3176.54
3623.14
3577.43
3929.98
4274.58
4190.89
-1456.16
365.335
509.37
-3437.52
-1947.03
-1016.64
1064.58
2237.93
2865.35
1008.63
2524.71
3187.76
425.502
2081.35
2561.22
-2475.57
524.17
884.178
26.9109
41.2694
54.9799
83.7304
273.002
157.727
133.498
131.817
5.26058
81.0768
191.678
301.317
443.972
291.284
330.658
361.858
-236.962
32.2916
273.419
536.107
162.004
239.387
314.028
362.399
38.0676
144.865
153.375
152.456
-219.144
-4.86665
127.212
218.24
-977.693
-198.984
108.927
330.269
-1532.56
-355.441
11.1857
565.067
-683.755
-82.4488
193.118
482.118
-1261.36
-270.118
-8.06903
494.891
-1040.2
-238.701
135.173
414.977
-1717.84
-423.315
9.23645
664.126
-1161.49
-318.145
123.057
493.216
-1851.12
-485.397
-13.0682
694.616
6.65019
24.0373
47.736
104.964
36.5755
32.901
29.1372
96.1973
67.34
82.3935
147.089
283.293
164.208
111.727
89.9792
260.168
-423.501
-50.1375
162.487
484.382
-197.509
30.1859
120.08
459.665
-92.9007
123.726
239.531
483.806
-29.7284
99.1547
103.205
463.799
-1088.42
-206.485
32.6356
647.03
85.7556
46.4171
34.7103
72.7952
166.318
68.0143
36.3806
33.8835
173.751
110.257
77.0906
187.718
423.535
180.759
91.9395
87.2447
95.067
122.459
107.609
309.186
532.196
253.974
138.828
137.713
-111.024
111.185
135.853
429.873
410.08
274.236
165.439
175.401
-575.898
13.8965
73.7691
413.548
105.854
236.396
153.774
180.247
-1265.16
-125.494
61.5838
478.725
-411.591
59.8835
99.2546
168.789
-982.548
-36.7128
72.9182
446.248
-251.874
138.676
131.344
182.421
-1526.07
-235.654
24.8228
519.524
-556.729
-18.3516
65.2788
157.993
-1722.51
-345.907
-27.0046
512.91
-691.787
-104.195
20.1807
136.601
37.1576
16.6346
8.70664
5.19758
3.80176
49.0016
25.5724
14.3216
8.78353
6.47414
88.7322
38.7389
20.2268
12.1408
8.95041
111.11
57.3596
32.1709
19.8382
14.677
117.686
48.5345
25.0253
15.0079
11.0955
149.63
76.1486
42.8192
26.5583
19.723
78.6197
39.0534
21.8662
13.5889
10.0991
55.6496
22.8542
11.7132
7.07366
5.20566
118.506
49.7281
26.1345
15.8663
11.6956
56.5261
20.3413
10.0693
5.98196
4.37613
124.821
57.8518
31.8094
19.6087
14.5431
53.3528
20.2353
10.3259
6.18423
4.51956
91.1358
32.4689
15.8119
9.36516
6.86102
53.5459
18.1701
8.81863
5.2368
3.83992
78.983
20.7917
8.14884
4.40586
3.11139
43.6147
9.81914
3.50787
1.81991
1.26142
30.9613
12.5459
6.32487
3.69741
2.68055
22.3429
9.94542
5.24275
3.10756
2.26074
75.6174
31.5157
16.2986
9.66821
7.07423
57.699
26.2202
14.0662
8.41789
6.14898
106.097
38.866
19.2733
11.2689
8.22144
78.4047
36.1776
19.6219
11.7856
8.66907
95.6888
44.4845
24.59
15.0903
11.2026
53.3971
27.5729
15.4658
9.40785
6.98885
49.6918
24.4731
13.8418
8.58782
6.37849
-338.093
-458.721
-761.591
-1123.13
-795.968
-1405.92
-278.085
-1144.12
366.427
-217.751
-730.734
-1217.79
180.368
103.012
-1135.03
-1793.34
-1432.82
-2044.64
-608.654
-141.138
-31.7558
-7.0062
-1.75511
-208.193
-92.2228
-13.1035
-3.44953
-1.48822
-1869.75
-431.631
-97.449
-21.3936
-5.36622
-498.467
-133.211
-32.1715
-6.75031
-1.80764
-3144.01
-727.318
-164.63
-36.2572
-9.07398
-788.868
-224.98
-54.2472
-12.5178
-3.13244
-4224.31
-980.112
-222.732
-49.1958
-12.3253
-915.361
-282.302
-70.284
-16.4092
-4.09918
-5285.89
-1238.54
-283.382
-62.899
-15.8222
-1006.36
-341.712
-87.642
-20.7399
-5.24269
-6282.92
-1517.68
-352.038
-78.7879
-19.9041
-1544.06
-472.53
-116.598
-26.7469
-6.68849
-5841.78
-1405.92
-324.681
-72.3675
-18.226
-1205.67
-401.419
-102.006
-23.8562
-5.97242
-6486.99
-1569.58
-364.784
-81.7685
-20.688
-1745.74
-517.401
-125.831
-28.4693
-7.10159
-6764.45
-1623.08
-377.763
-84.641
-21.4024
-1809.23
-538.123
-132.063
-27.7619
-7.32831
-508.559
-6879.36
-6278.07
-2250.32
1630.61
2781.83
7757.11
11338
1746.32
8325.94
-1602.57
2591.55
2492.13
4911.7
9260.79
13103.8
14011.8
17582.4
5720.24
7407.37
-19793.7
-14330.7
-4818.35
-3793.22
-2729.45
-3905.02
-3623.14
-12212.9
-11754.6
-10011.5
-10895.1
-9034.19
-6465.31
-8398.46
-5601.44
-4743.46
-5778.83
-3968.05
-19769.6
-10334.1
-3689.15
-6280.01
-8479.64
-5935.33
-6499.43
-4843.33
-2960.77
-4189.77
-4434.56
-4790.59
-19476.3
-12806.2
-12186.9
-8821.21
-8786.85
-9210.38
-4001.72
-5287.19
-6670.93
-14189.8
-12377
-10518.5
-9866.94
-8622.92
-9334.8
-6425.36
-5038.92
-3922.14
-2046.97
-4255.56
-3530.51
-2647.2
-1650.38
-564.791
-3388.19
-2836.99
-2135.05
-1326.84
-450.701
-2424.34
-2015.48
-1505.01
-928.992
-314.237
-3492.08
-2924.81
-2198.48
-1362.9
-461.797
-3216.15
-2674.7
-2001.03
-1238.93
-420.256
-7885.09
-6084.92
-4830.42
-4557.16
-5004.73
-6448.57
-4776.32
-3443.75
-2898.59
-2047.07
-6254.76
-3760.29
-2625.93
-1854.2
-903.173
-5606.39
-3794.37
-2544.61
-1875.32
-1118.49
-4221.18
-2641.85
-1654.64
-1159.65
-573.6
-5119.54
-3826.38
-2646.82
-1585.41
-546.769
-5714.69
-3667.61
-2403.31
-1446.46
-544.839
-3675.67
-2192.08
-1313.2
-712.336
-241.308
-3909.64
-3018.62
-2126.89
-1273.69
-430.183
-4613.52
-3444.38
-2349.6
-1370.07
-455.486
-3305.19
-2572.41
-1817.06
-1083.41
-362.31
-13132.7
-10080.4
-8236.43
-7444.42
-7212.2
-7622.98
-5538.99
-4077.48
-2792.9
-1270.82
-3071.41
-2404.92
-1724.76
-1053.75
-363.797
-5322.15
-4256.14
-3121.72
-1947.5
-684.824
-6957.29
-5473.04
-4041.81
-2613.07
-994.557
-5054.77
-4077.12
-3027.2
-1914.89
-681.245
-5629.38
-4601.79
-3435.13
-2161.16
-755.603
-4215.78
-3447.95
-2558.83
-1589.87
-545.988
-2553.15
-2057.4
-1496.15
-908.665
-305.822
-3688.97
-3040.46
-2256.21
-1389.34
-470.339
-3773.28
-3007.63
-2176.7
-1326.09
-450.607
-4149.69
-3372.76
-2485.36
-1534.08
-524.549
-13614
-11364.6
-9595.21
-8678.4
-7694.9
-8915.27
-6410.91
-4979
-3736.16
-1929.66
-9020.3
-7179.6
-5513.06
-4122.4
-2027.96
-6950.72
-5289.77
-4003.38
-2745.58
-1128.8
-7339.09
-5881.09
-4407.72
-2873.01
-1085.09
-7199.42
-5435.22
-4086.67
-2790.36
-1133.55
-3436.9
-2781.55
-2056.63
-1285.19
-448.053
-4660.1
-3851.17
-2871.49
-1778.83
-605.212
-5743.86
-4663.67
-3460.71
-2168.41
-755.986
-5524.01
-11240.2
-11728.1
-32086
-11571.6
-42982
-6307.09
-15291.8
-11584.4
-8948.51
-19219
-16030.2
-11568.1
-10895.9
-21579.5
-17097.7
-4064.15
-3017.65
-7856.47
-5395.06
-9109.69
-6862.71
-24413.6
-18028.4
-15020.1
-11409.9
-15434.1
-9180.1
-1186.06
-3709.87
-40001.5
-52399.8
-24195.2
-30594.7
-52908.5
-67996.6
-26070.5
-30679.6
-29790.8
-41120.5
-24278
-33147
-16089
-24299.8
-1938.13
-510.769
-3401.1
-1160
-6592.68
-2940.38
-13366
-4824.2
-2903.69
-1645.22
-7261.62
-2281.56
-15022.1
-4717.42
-19534.5
-6576.25
-16374.5
-8474.67
-18850.7
-11206.4
-14943.1
-10685.1
-16752.2
-12987.6
-15034
-8795.74
-11903.4
-6139.71
-21324.1
-13607.5
-22217.8
-14301.7
-19589.2
-14881
-20681.2
-15526
-17696.9
-11102.2
-18934.8
-11846.5
-16445
-7252.91
-7154.9
-9428.84
-14719.1
-7411.86
-5356.47
-9259.65
-18197.6
-7433.57
-8709.67
-9686.55
-19350.2
-7683.42
-9811.47
-10253.6
-1115.34
-1001.9
-269.412
-1185.31
-4530.22
-4680.92
-2829.87
-5606.22
-2531.92
-3156.54
-4391.47
-8296.51
-12038.5
-9667.54
-9297.34
-11589.7
-7626.03
-7617.89
-8138.27
-6829.1
-13414
-11620.7
-11463.3
-9586.13
-6647.38
-5695.46
-12504.9
-1080.38
-810.844
-602.647
-675.567
-4210.27
-3345.74
-3561.16
-3137.93
-604.912
516.335
-4207
-3303.5
-10141.5
-10770
-9474.74
-8670.12
-7034.88
-5110.81
-9200.99
-7330.75
-8215.53
-6436.07
-11531.7
-11744.2
-9853.4
-7719.07
-7284.49
-4957.2
-6413.46
-4068.95
-9564.79
-5825.05
-9269.45
-5076.81
-8264.2
-9423.13
-13025.6
-17333.6
-13737.5
-20060.3
-6324.75
-7521.29
-7677.93
-2887
-7614.4
-14910
-7347.13
-16068.8
-13571.7
-24884.3
-13848.8
-26268.3
-5638.23
-12732.1
-5276.57
-13686.9
-7639.98
-6020.44
-11054.4
-4483.24
-7359.7
-1803.3
-9512.84
-1231.72
-7591.54
-9100.24
-11691.1
-5443.52
-6376.86
-10810.7
-10392.5
-7143.41
-799.459
-743.165
-542.141
-626.359
-2552.02
-1865.87
-2308.71
-2100.41
1077.19
593.115
-2705.79
-3005.84
-10661
-10119.9
-7677.58
-6635.03
-4063.49
-3427.82
-5749.52
-4746.63
-5411.02
-3952.68
-18267.9
-16009.3
-7956.41
-6785.7
-6028.33
-4601.29
-4975.8
-3208.34
-5297.42
-2312.71
-5594.66
-9202.63
-4904.32
-9313.61
-8291.33
-10367.6
-9302.16
-12675.3
-994.391
-726.614
-777.727
-664.525
-3638.59
-2609.81
-2984.49
-1691.31
-1416.27
-1689.44
-8336.77
-8959
-4695.93
-4245.19
-9312.6
-9634.93
-14284.1
-16406.9
346.565
3897.59
-7359.59
-7128.9
-7037.41
-5551.11
-1078.53
-978.649
-1171.26
-967.516
-1758.36
-1207.98
-631.103
-539.683
-8150.01
-3815.25
-6926.18
-3201.36
-9284.04
-3689.25
-11002.1
-3903.8
-5405.51
-10259.2
-6994.47
-10740.2
-8651.81
-11632.3
-11344.4
-12609.9
-5262.98
-9270.69
-4770.84
-9232.57
-8164.85
-10833.4
-9376.1
-11217.3
-13113.9
-13252.5
-14398
-13782.3
-5626.35
-9111.84
-6199.78
-9333.46
-556.358
-2286.2
-7964.11
-5503.5
-536.713
-2366.93
-7890.14
-5270.46
-854.471
-2287.32
-7946.7
-5673.21
-1037.63
-2203.16
-7826.51
-5597.69
-1081.23
-1188.27
-1017.72
-1104.79
-2112.86
-2165.13
-1462.37
-1591.71
-8418.17
-7756.56
-3974
-4017.6
-3760.97
-5223.84
-4074.94
-336.344
-1882.74
-1321.89
-1413.14
-3622.22
2632.38
-932.222
-13750.8
-11730.1
-10662.8
-9335.64
-5913.45
-1196.22
-1081.16
-1249.08
-1563.36
-2147.84
-1688.53
-2048.14
-2727.11
-8114.19
-8018.4
-4453.71
-5780.23
-5044.39
-6708.06
-3182.57
-5110.53
-4876.5
-5320.49
-1198.72
-1565.7
-3009.9
-4488.94
-9660.91
-7945.05
-7651.54
-5628.55
-6726.31
-4812.36
-6025.51
-4410.72
-4502.84
-4969.11
-8380.78
-8286.11
-11280.5
-7292.76
-10419.9
-11194.5
-13047
-10988.7
-9526.87
-5943.71
-7024.26
-7024.16
-12274.4
-5996.5
-13070.6
-6036.58
-13927.9
-10843.1
-14684.6
-11059.2
-10363.1
-4627.61
-10998.8
-4674.86
-7906.01
-6266.86
-6433.36
-8825.84
-6764.79
-7202.53
-6300.19
-9060.88
-8163.25
-5840.86
-6513.71
-9487.56
-9178.3
-5787.55
-7394.8
-9203.81
-874.902
-753.076
-1130.26
-826.786
-1437.52
-1705
-1668.13
-1214.13
-7845.81
-6869.04
-3873.86
-1722.85
-7879.82
-7481.41
-6153.14
-5535.29
-5158.62
-4421.34
-1886.3
-1934.41
-4276.8
-1924.05
-8642.94
-7410.62
-4906.95
-3884.45
-3833.34
-2403.17
-2856.72
-1239.68
-4461.07
-110.48
-240.718
-111.043
-38.2237
24.4972
-226.769
-142.672
-52.1718
12.6883
-650.352
-289.224
-12.9849
182.995
-588.417
-342.132
-51.2386
116.797
-1063.75
-427.995
28.7733
419.136
-1050.06
-517.959
-178.724
16.4281
-721.429
-349.168
-172.274
-55.5422
-552.734
-229.126
-21.6661
120.114
-1589.03
-559.943
-130.357
152.732
-1892.04
-539.74
-92.8273
542.555
-1526.24
-538.686
-87.7788
282.958
-1718.64
-485.911
-121.385
494.624
-1484.48
-515.51
-39.7693
310.47
-1960.34
-555.886
-73.8133
630.586
-1343.94
-435.838
47.3628
446.68
-1939.88
-536.067
-45.2933
681.842
-223.378
-91.0133
-13.8378
76.0019
-192.388
-69.4164
-28.2973
72.7381
-576.274
-238.014
-22.0905
196.424
-483.891
-183.064
-74.9101
187.993
-1137.82
-397.192
-9.01521
425.256
-1034.57
-346.291
-85.1266
389.465
-1264.42
-470.895
-89.7693
313.788
-955.663
-328.566
-115.306
434.395
-1732.32
-485.599
-105.983
685.086
-138.741
-52.0293
-15.9755
47.2442
-63.5251
-36.4686
-16.8892
-0.0932814
-418.11
-150.421
-65.0599
113.042
-210.316
-109.098
-59.3341
-8.68996
-742.624
-250.22
-98.8122
204.184
-429.066
-191.319
-93.1688
-7.62435
-1130.04
-360.546
-125.513
308.83
-752.541
-282.126
-123.956
-2.26644
-1489.52
-432.976
-194.689
264.315
-1016.41
-341.176
-163.13
-23.1982
-1993.18
-561.319
-207.645
329.831
-1008.67
-316.84
-133.52
14.0317
-1920.52
-551.045
-237.593
274.594
-1115.31
-353.144
-156.894
-10.2392
-1967.76
-513.934
-150.429
425.306
-904.095
-255.007
-82.7909
63.8906
-1867.56
-439.99
-86.9435
480.603
-800.772
-181.311
-28.6147
105.853
-6.81903
-11.2567
-8.16992
-5.51766
-4.21546
-29.5625
-21.9497
-14.0901
-9.20371
-6.97624
-13.3821
-25.669
-18.6635
-12.5372
-9.51113
-63.9394
-48.5831
-31.2069
-20.3016
-15.3453
-7.63481
-30.8729
-22.8898
-15.3915
-11.6469
-83.4772
-63.8983
-40.7941
-26.3775
-19.8703
-40.5013
-32.0283
-20.5341
-13.2555
-9.98191
-5.45694
-13.6818
-10.1182
-6.7697
-5.16943
-19.1234
-33.5481
-23.6715
-15.6789
-11.9017
5.04754
-11.2736
-8.88828
-6.0304
-4.61057
-50.4308
-46.2431
-30.0633
-19.5092
-14.7036
-1.45442
-12.9838
-9.5154
-6.37313
-4.87077
11.7715
-16.0765
-13.3187
-9.10742
-6.96715
8.71286
-9.04693
-7.46055
-5.07752
-3.88199
42.6683
-1.513
-5.29253
-4.15836
-3.34206
28.5852
0.523204
-2.10113
-1.75929
-1.44345
-0.366645
-7.90884
-6.08134
-4.17869
-3.21132
-6.68411
-7.78418
-5.32802
-3.57274
-2.73086
-9.89478
-22.3134
-16.0286
-10.8019
-8.22931
-23.2973
-22.1324
-14.5904
-9.66452
-7.35773
8.65825
-24.1139
-18.701
-12.8021
-9.77997
-38.5192
-32.3284
-20.8147
-13.7126
-10.3754
-46.3704
-38.4799
-24.431
-15.8465
-11.914
-42.9592
-27.1333
-16.6298
-10.8068
-8.10605
-32.4527
-22.2926
-13.672
-8.76268
-6.58533
-62.0097
-202.597
-112.35
-517.07
-57.537
-713.817
228.794
-644.812
495.554
-101.249
-767.987
-1256.61
103.421
-66.3403
-1154.72
-1804.39
-1438.47
-2046.73
-585.854
-138.357
-31.3062
-6.92198
-1.73528
-156.617
-85.3993
-11.932
-3.2743
-1.4615
-1810.63
-424.018
-96.1843
-21.1521
-5.30875
-376.555
-114.544
-29.3073
-6.31223
-1.73323
-3053.46
-714.586
-162.436
-35.8362
-8.97472
-651.579
-203.19
-50.782
-11.9674
-3.03397
-4119.27
-963.453
-219.691
-48.6013
-12.186
-819.879
-265.397
-67.3567
-15.9055
-4.00338
-5193.79
-1221.08
-279.883
-62.1857
-15.6531
-979.918
-333.492
-85.8155
-20.3736
-5.16563
-6242.89
-1507.09
-349.522
-78.2279
-19.7652
-1549.54
-472.249
-116.32
-26.6607
-6.66447
-5783.2
-1391.3
-321.399
-71.6644
-18.0565
-1215.57
-399.335
-101.174
-23.6486
-5.92366
-6463.25
-1563.19
-363.22
-81.4133
-20.5983
-1746.89
-517.186
-125.705
-28.4328
-7.09144
-6756.52
-1620.95
-377.233
-84.519
-21.3715
-1809.18
-538.004
-132.02
-27.7537
-7.32566
-527.327
-6803.94
-6023.62
-2203.1
-1565.21
-934.77
-3683.2
-2689.48
-6368.25
-5956.35
-3029.35
-2286.4
-401.185
-613.233
-1049.93
-1699.43
-2535.85
-3476.33
-289.154
-619.808
-1286.33
-2232.66
-3348.35
-4471.03
-305.375
-140.755
-523.394
-358.443
-961.836
-799.616
-1600.43
-1488.36
-2290.83
-2207.21
-2983.86
-2701.35
-4280.68
-4803.77
-5190.81
-7675.52
-8554.77
-9401.98
-5391.65
-5894.32
-5832.86
-5295.25
-4513.28
-3932.55
-362.472
-307.12
-233.299
-145.67
-49.5167
-553.71
-468.812
-355.873
-222.086
-75.4717
-947.33
-801.415
-607.888
-379.159
-128.819
-1531.75
-1294.34
-980.807
-611.378
-207.662
-2281.9
-1924.94
-1456.67
-907.339
-308.126
-3119.61
-2624.51
-1982.29
-1233.9
-419.082
-261.124
-221.149
-167.919
-104.81
-35.6182
-559.366
-473.347
-359.138
-224.043
-76.1218
-1160.09
-980.93
-743.752
-463.788
-157.556
-2011.37
-1698.82
-1286.88
-802.064
-272.431
-3011.46
-2539.22
-1921.1
-1196.69
-406.454
-4010.95
-3373.78
-2548.51
-1586.93
-539.18
-276.014
-233.927
-177.742
-111.005
-37.7423
-127.227
-107.831
-81.9337
-51.1698
-17.3983
-472.773
-400.428
-304.061
-189.799
-64.5119
-323.819
-274.312
-208.327
-130.052
-44.2056
-868.231
-734.833
-557.601
-347.882
-118.21
-721.933
-611.143
-463.824
-289.404
-98.3416
-1443.19
-1220.06
-924.825
-576.566
-195.844
-1342.26
-1134.81
-860.192
-536.228
-182.127
-2062.36
-1740.39
-1317.19
-820.36
-278.534
-1987.06
-1676.61
-1268.51
-789.703
-268.039
-2678.11
-2252.82
-1700.67
-1057.76
-359.02
-2424.1
-2038.01
-1536.94
-954.731
-323.742
-3823.5
-3203.18
-2413.67
-1502.53
-511.085
-4254.68
-3540.26
-2660.76
-1660.58
-568.044
-4525.15
-3723.36
-2792.91
-1759.27
-612.554
-6484.73
-5241.84
-3945.36
-2557.96
-942.264
-6832.18
-5378.58
-4090.88
-2800.47
-1162.34
-7188.45
-5557.14
-4262.55
-3037.22
-1367.59
-4818.22
-4039.06
-3045.66
-1897.02
-645.396
-5236.43
-4368.82
-3288.55
-2051.96
-700.625
-5133.27
-4253.6
-3197.53
-2005.18
-690.701
-4583.54
-3758.36
-2825.72
-1794.51
-632.17
-3779.53
-3042.41
-2295.73
-1501.32
-559.795
-3174.51
-2505.64
-1899.85
-1284.16
-509.358
-422.427
-678.367
-1162.98
-1866.14
-2764.66
-3755.83
-318.945
-711.074
-1442.69
-2454.45
-3622.9
-4761.24
-325.779
-158.252
-586.27
-413.518
-1072.55
-900.242
-1768.09
-1646.73
-2534.81
-2481.32
-3299.42
-3115.04
-4571.92
-5074.94
-5440.1
-7827.74
-8622.29
-9422.92
-5639.54
-6043.73
-5861.8
-5225.22
-4412.25
-3886.29
-381.776
-323.593
-245.906
-153.59
-52.218
-612.944
-519.403
-394.628
-246.452
-83.7867
-1050.29
-889.513
-675.509
-421.743
-143.364
-1683.98
-1425.02
-1081.46
-674.946
-229.409
-2491.67
-2105.89
-1596.74
-996.163
-338.585
-3377.68
-2849
-2157.57
-1345.84
-457.625
-288.198
-244.245
-185.588
-115.907
-39.4035
-642.34
-544.192
-413.39
-258.142
-87.7563
-1302.47
-1102.75
-837.246
-522.661
-177.663
-2213.89
-1872.66
-1420.78
-886.625
-301.36
-3263.19
-2756.41
-2089.27
-1303.36
-443.036
-4278.86
-3606.84
-2730.5
-1703.18
-579.212
-294.533
-249.715
-189.814
-118.582
-40.3256
-143.103
-121.354
-92.2635
-57.6497
-19.6073
-529.913
-449.188
-341.381
-213.245
-72.5101
-373.836
-316.961
-240.941
-150.528
-51.1877
-969.002
-820.998
-623.688
-389.474
-132.411
-813.5
-689.415
-523.84
-327.165
-111.233
-1596.26
-1351.45
-1026.01
-640.455
-217.699
-1487.03
-1259.26
-956.18
-596.911
-202.899
-2285.99
-1933.24
-1466.41
-914.951
-310.964
-2238.46
-1893.58
-1436.55
-896.302
-304.6
-2969.46
-2506.29
-1898.56
-1184.1
-402.504
-2805.33
-2368.92
-1794.69
-1118.99
-380.218
-4095.81
-3443.53
-2604.08
-1625.59
-553.767
-4514.03
-3774.83
-2851.04
-1786
-612.119
-4772.57
-3955.28
-2987.37
-1891.16
-659.973
-6660.72
-5426.78
-4116.2
-2684.28
-991.742
-6933.72
-5497
-4209.89
-2897.24
-1205.74
-7226.04
-5602.6
-4309.83
-3077.44
-1386.64
-5050.09
-4243.85
-3208.05
-2002.07
-681.852
-5381.1
-4501.47
-3397.6
-2124.61
-726.307
-5170.08
-4295.61
-3238.41
-2035.88
-702.389
-4531.19
-3724.48
-2808.86
-1789.61
-632.188
-3697.53
-2980.77
-2255.87
-1481.64
-555.214
-3136.52
-2476.38
-1880.32
-1274.21
-506.983
-19732
-14386.6
-5198.12
-4204.48
-3200.86
-4498.52
-4115.6
-12979.7
-14624.4
-11575.8
-13360.5
-7967.92
-11333.1
-6104.87
-6369.03
-4660.76
-20446.7
-11338.3
-4395.47
-7191.95
-9341.64
-6445.8
-7163.25
-5428.23
-3347.16
-4856.89
-5363.77
-5506.4
-19359.6
-13004.2
-12840.3
-9216.29
-9232.56
-9742.79
-4680.53
-5934.78
-7309.47
-14206.3
-12455.2
-10638.2
-10030.3
-8777.53
-9430.47
-6525.14
-5136.22
-4003.84
-2082.9
-4620.91
-3862.82
-2918
-1829.45
-627.831
-3771.88
-3174.78
-2401.88
-1498.83
-510.231
-2868.61
-2410.92
-1820.59
-1133.94
-385.46
-4043.92
-3408.81
-2579.43
-1607.69
-546.358
-3682.1
-3091.02
-2334.3
-1455.83
-495.723
-9589.96
-8066.21
-6739.69
-6170.08
-6190.09
-10974.8
-9554.81
-7809.18
-6293.66
-3758.79
-8371.68
-5910.91
-4490.73
-3162.11
-1384.71
-9993.64
-8319.11
-6572.49
-4857.97
-2359.13
-6754.64
-5434.83
-4025.56
-2524.37
-881.904
-8916.04
-6667.62
-4894.06
-3123.13
-1147.75
-5299.92
-4336.7
-3229.8
-2014.54
-693.045
-5508.15
-4493.56
-3341.55
-2084.74
-718.194
-4080.61
-3359.69
-2506.93
-1559.57
-533.28
-14502.3
-11721.4
-9877.09
-8868.45
-8228.75
-8852.2
-6815.85
-5221.25
-3618.82
-1602.43
-3807.76
-3116.63
-2329.9
-1464.77
-510.737
-6253.9
-5146.79
-3875.62
-2460.07
-869.299
-7901.41
-6418.48
-4871.66
-3197.61
-1215.45
-5585.59
-4592.82
-3470.69
-2221.16
-793.187
-6282.34
-5207.89
-3938.08
-2499.08
-876.319
-4791.98
-3983.46
-3002.7
-1886.77
-651.225
-2962.36
-2461.65
-1846.37
-1149.08
-391.869
-4331.3
-3624.91
-2731.85
-1702.79
-580.207
-4707.4
-3887.75
-2911.72
-1819.15
-625.308
-4859.34
-4035.4
-3035.98
-1902.57
-655.056
-13754.8
-11664.6
-9996.42
-9140.49
-8161.99
-9209.82
-6720.93
-5275.8
-3976.27
-2039.01
-9955.86
-8179.93
-6463.51
-4868.77
-2369.94
-7414.31
-5772.19
-4444.06
-3072.59
-1256.88
-7838.98
-6394.07
-4869.63
-3206.85
-1214.31
-7834.76
-6086.33
-4681.06
-3228.76
-1308.07
-4102.21
-3396.3
-2563.73
-1623.62
-568.165
-5282.61
-4416.65
-3331.13
-2081.61
-711.355
-6391.55
-5281.2
-3983.76
-2524.62
-884.127
-489.475
-1391.47
-2208.39
-2977.14
-3706.16
-4386.58
-2606.92
-7006.27
-6664.49
-2554.91
-8912.94
-7471.89
-8924.39
-9883.17
-2361.78
-1525.41
-5485.21
-3180
-10450.9
-7397.78
221.197
-2116.36
-5843.88
-5482.32
-2059.53
-7590
-6101.79
-7493.09
-8441.23
-1955.69
-902.866
-4711.62
-1667.86
-8674.65
-4430.29
1520.93
-1548.5
-4451.7
-4165.37
-1512.33
-6006.9
-3681.28
-6090.43
-6752.03
-1476.88
-821.728
-3342.44
-1732.74
-6939.19
-1783.01
1658.07
-1143.12
-3453.19
-3299.56
-1157.79
-4608.81
-2254.95
-5071.79
-5972.1
-1113.55
-862.73
-2451.08
-1749.71
-6118.35
-381.395
1246.45
-925.926
-2934.47
-2849.66
-978.792
-3713.56
-1875.05
-4557.93
-5802.41
-883.402
-938.651
-1768.15
-1679.95
-5345.2
-165.717
131.025
-819.248
-2623.91
-2621.11
-888.177
-3444.07
-2131.56
-4228.18
-5551.34
-684.03
-736.62
-1466.04
-1646
-5258.6
-954.011
-468.186
-1388.41
-3398.26
-4936.79
-1908.14
-5507.06
-9616.92
-7244.58
-10445.1
-1018.34
-728.2
-3903.11
-2434.54
-1208.6
-9263.19
-4857.67
-1295.22
-3177.24
-4350.51
-1662.85
-5106.52
-8721.41
-6559.41
-8925.21
-1045
-649.322
-4054.72
-2315.67
-388.448
-9119.17
-3684.37
-1145.54
-2819.58
-3585.56
-1344.03
-4674.32
-7849.57
-5613.64
-7900.96
-934.765
-747.243
-3495.58
-2425.38
-599.767
-7423.93
-3545.04
-998.627
-2559.25
-2998.59
-1100.5
-4389.54
-7181.3
-5030.42
-7220.13
-865.582
-760.851
-3260.77
-2541.28
-392.271
-6931.1
-3602.37
-908.538
-2315.03
-2678.95
-969.011
-4009.35
-6631.37
-4614.06
-6891.4
-816.182
-819.437
-2984.87
-2758.88
-527.458
-6689.52
-3692.58
-847.251
-2074.71
-2493.49
-895.338
-3713.3
-6560.08
-4301.17
-6679.73
-849.405
-946.951
-2669.25
-2627.69
-776.649
-6856.65
-4091
5969.9
7537.72
15641.4
22852.6
23260.3
40091.9
17881.2
45539.3
14577.5
32006.8
21821.2
33121.7
19564.6
25699.5
7389.4
8375.56
14630.8
16743.8
18912.7
18758
14904.2
18425.2
21969.2
19721.8
4915.31
3718.86
6033.89
4063.55
12348.1
9823.29
21150
15279.8
16336.8
16995.2
18127.9
17255.8
6326.52
4953.65
38770.4
51906.3
25037.5
30744.6
52190.2
67713.2
26994.8
30904.2
28717.4
40573.8
25042.8
33210.1
14643.5
23620
2640.05
903.945
2710.83
987.364
8421.9
3394.36
11611
4266.39
8235.47
3161.1
8780.84
2812.94
15000.9
4769.94
19362.6
6528.58
23773.2
11784.9
21762.3
12901.4
22328.7
14438.5
19635.4
14784.8
17078.4
10140.6
17069.7
8680.95
22451.5
14372.4
22500.2
14510.8
20736.5
15661.6
20987.4
15737.9
18452.5
11725.4
19114.7
12018.5
17429.7
7533.66
8037.73
9770.27
17503.1
8230.14
6999.33
9881.89
18465.6
7505.54
9121.88
9854.96
19384.6
7690.2
9927.9
10303.1
3407.82
3678.35
1167.01
2223.55
10582.2
11191.3
4070.99
7196.46
13604.8
15135.5
6522.4
11077.7
12271.2
1132.5
13493
16576.1
8965.5
794.583
7481.33
12092.9
19454
13398.1
9789.02
11860.2
10331.1
8877.82
13910.9
3190.99
2611.59
1800.74
1811.26
9887.87
8370.1
5967.92
5664.09
12328.5
10489.9
7727.47
6941.44
5871.15
7456.82
12094.2
12516
13959.5
12707.6
15727.4
13719.3
10568.5
8892.16
9025.66
9551.45
11900.7
9467.69
10824.9
7950.07
9347
6502.88
10842
7131.69
10210
4858.12
8750.19
9527.57
12527.3
16391.5
13775.7
20085.4
6951.22
7763.53
9034.85
2993.49
7791.68
15052.1
7388.77
16123
13635.7
24784.3
13872.3
26286.4
5875.07
12907.5
5332.88
13741.1
8105.29
6172.58
11248.3
4493.6
8370.65
1771.19
9823.45
856.311
7777.79
9211.04
11779.8
5463.3
6426.07
10847.3
10416.9
7156.73
2056.92
1835.26
1679.08
1517.02
1407.63
1278.46
6887.19
5685.87
4946.62
4416.51
3576.25
3116.19
8451.53
7340.6
6803.18
5290.99
4359.12
4136.98
6591.9
5878.4
5750.72
10953.8
8411.69
7119.85
10270.2
7671.2
6263.73
10792.2
8595.86
7509.21
6637.17
4422.92
3474.04
15764
13745.3
11971.5
10087.4
8467.19
7087.89
8909.55
6995.4
5638.89
7440.79
5431.93
4219.8
7586.59
4260.91
2434.17
10280.4
13961.2
8111.74
10520.6
11046.9
16256.8
9854.91
14383.5
83.5109
639.642
-418.775
60.2134
2959.62
3430.45
1224.14
737.229
663.318
2377.68
9345.76
13665.5
6627.16
3616.98
9816.53
9746.53
15100.8
16633.6
-608.974
-4098.69
7519.96
7096.87
7119.4
5495.8
897.383
498.571
557.385
225.705
2049.11
229.2
-292.178
-839.066
9206.3
2417.01
6209.64
1633.91
8971.12
2746.31
10865.6
3516.76
8761.31
11883.3
8111.73
11600.6
14044.3
14905.6
13414.4
14128.3
5641.2
9450.35
6505.12
9381.44
8612.81
11183.6
9506.21
11308.3
13980.5
13885.5
14643.7
13952.5
5698.8
9154.74
6205.77
9334.09
-72.2698
1434.2
7522.47
4827.62
-644.05
1016.94
6969.27
4272.96
383.593
1686.24
7698.63
5257.85
842.699
1960.53
7751.06
5453.97
-650.998
-748.433
160.364
18.6647
-2884.45
-2927.86
-191.556
-339.765
-566.457
-1971.28
1747.51
1103.45
-10256.8
-9518.73
-5572.96
-4251.66
-386.836
-10447.8
-10808
-4331.82
-6393.09
-773.895
10173.2
8023.94
7202.52
6835.34
4261.76
-783.543
-731.417
-45.2921
59.6826
-2556.61
-2551.75
-41.1281
220.264
-2597.75
-3197.26
770.12
1127.96
-5136.77
-2363.52
-8205.46
-5190.86
-3668.62
-2813.64
-4130.75
-3623.95
546.409
1538.29
3747.05
2368.2
1030.96
-1043.19
1040.29
-756.424
1813.14
456.557
2285.79
2629.73
5248.69
4817.65
9976.39
6035.67
8098.87
8185.42
12299.5
9984.06
7951.97
4722.02
3993.4
3987.25
11757.7
5212
12935.3
5844.74
13718.1
10189.6
14641.5
10917.7
9633.75
3859.19
10791.8
4469.19
6404.28
5154.56
5097.41
7569.82
4181.61
4745.78
4373.03
7021.45
7375.33
5112.06
5752.51
8684.86
8930.91
5557.47
7147.65
8973.18
-762.752
-806.772
-909.903
-40.4573
-298.076
-331.795
-2890.12
-3116.44
-3132.53
-176.961
-851.057
-865.366
-3676.51
-4151.54
-4281.7
655.535
-836.27
-1145.63
-1290.01
-1109.29
-808.209
-3873.98
-3983.02
-3728.71
-3176.35
-3622.77
-3577.08
-3928.95
-4273.34
-4189.82
1455.52
-365.298
-509.205
3437.3
1947.11
1016.83
-1064.72
-2237.77
-2865.11
-1008.68
-2524.44
-3187.43
-425.428
-2080.96
-2560.78
2475.1
-524.196
-884.103
-22.2894
-36.5473
-49.4331
-75.1872
-254.399
-146.161
-123.532
-121.301
-4.76752
-80.7998
-191.892
-302.671
-439.27
-289.49
-329.35
-361
236.937
-32.2843
-273.358
-535.942
-161.424
-239.195
-313.966
-362.324
-38.0945
-144.848
-153.357
-152.417
219.093
4.87249
-127.193
-218.209
977.662
199.046
-108.859
-330.159
1532.36
355.447
-11.1345
-564.948
683.665
82.5112
-193.003
-481.902
1261.18
270.137
8.13094
-494.747
1040.09
238.729
-135.119
-414.895
1717.64
423.314