/*--------------------------------*- C++ -*----------------------------------*\
  =========                 |
  \\      /  F ield         | OpenFOAM: The Open Source CFD Toolbox
   \\    /   O peration     | Website:  https://openfoam.org
    \\  /    A nd           | Version:  11
     \\/     M anipulation  |
\*---------------------------------------------------------------------------*/
FoamFile
{
    format      ascii;
    class       volScalarField;
    location    "2.3";
    object      T;
}
// * * * * * * * * * * * * * * * * * * * * * * * * * * * * * * * * * * * * * //

dimensions      [0 0 0 1 0 0 0];

internalField   nonuniform List<scalar> 
5712
(
539.304
555.281
529.034
548.348
514.152
538.803
488.356
517.649
487.934
511.125
510.967
533.648
524.884
544.504
534.009
551.493
505.666
485.969
525.179
496.667
478.03
457.432
497.58
466.915
547.302
554.777
559.859
563.965
537.288
546.534
553.729
559.55
537.705
522.827
515.764
506.004
534.316
547.983
544.047
543.738
506.64
510.723
520.882
520.018
476.64
480.044
550.974
553.068
526.323
532.299
559.9
562.555
559.824
567.737
567.104
570.772
553.203
565.12
563.779
569.434
539.934
559.452
550.926
564.778
559.129
567.961
562.314
569.084
472.031
460.333
479.208
462.691
440.683
430.243
448.32
432.92
506.233
490.908
499.592
488.44
484.379
463.829
485.773
463.636
453.588
434.334
455.041
434.292
511.021
492.067
512.37
491.955
529.911
556.609
518.212
548.329
523.726
552.912
515.102
545.35
534.346
558.753
519.717
549.906
535.749
559.539
519.819
550.619
553.772
541.73
564.292
555.423
544.33
532.374
560.499
550.469
530.073
518.928
553.838
543.041
457.7
421.037
489.249
514.734
545.539
415.538
452.156
483.775
507.903
536.283
420.825
454.263
484.21
510.561
539.455
520.313
501.905
525.008
507.411
514.526
497.453
523.041
505.266
505.313
489.368
519.935
502.384
405.665
393.55
443.441
431.103
473.759
460.445
497.056
482.494
518.427
502.099
409.767
396.513
444.675
434.509
474.976
464.314
500.366
487.887
521.579
507.413
448.166
442.974
446.524
441.59
414.04
395.562
413.898
394.53
476.438
474.758
478.164
475.301
444.056
440.376
443.969
440.491
413.078
394.392
413.197
394.646
473.669
473.542
473.561
473.724
503.905
502.176
525.949
523.47
504.328
501.001
525.523
521.009
502.5
501.806
525.887
524.119
501.157
500.934
524.752
523.071
482.524
468.014
460.604
485.492
469.79
462.095
479.405
464.667
456.945
483.479
467.228
459.136
471.607
456.819
449.018
480.514
463.07
454.318
380.786
372.097
368.041
417.008
404.945
398.577
444.94
430.235
422.044
464.796
448.917
440.586
479.114
459.666
449.712
382.298
371.389
366.187
422.418
409.457
402.557
449.931
433.973
424.967
469.4
450.269
439.753
481.434
459.304
447.635
411.868
403.083
417.506
408.835
443.279
428.241
453.701
435.816
387.795
365.296
389.004
367.284
389.1
368.073
390.979
370.201
390.634
386.672
389.989
384.475
371.466
375.164
413.007
415.879
441.292
444.133
393.973
398.432
393.914
396.669
378.292
381.569
343.346
325.816
348.78
329.267
345.997
326.39
351.344
330.318
350.205
327.137
357.389
332.273
361.355
335.477
363.362
337.48
385.785
376.426
393.309
379.967
411.46
401.278
418.931
404.531
372.725
358.929
365.399
355.396
397.631
381.98
399.555
382.65
423.531
406.313
425.207
406.624
376.886
361.038
378.946
361.903
353.043
329.526
341.803
323.618
346.296
325.377
338.548
321.2
357.181
332.631
343.803
325.208
359.479
334.773
344.73
326.107
326.79
315.446
319.035
311.456
329.039
318.128
319.354
312.201
333.454
324.202
320.298
314.398
366.835
390.321
349.438
336.54
320.159
385.408
362.198
342.874
330.541
316.269
390.033
366.761
348.134
333.593
318.244
305.931
297.02
303.883
295.671
309.013
300.01
305.284
297.177
315.153
305.995
308.029
299.962
375.262
363.494
352.389
341.079
335.229
325.247
323.065
313.494
311.375
303.267
378.69
364.379
356.201
342.642
339.185
327.254
325.901
314.746
313.456
304.536
360.408
342.406
363.55
344.456
383.433
363.764
385.889
364.485
345.391
329.284
342.423
327.033
366.202
345.782
366.954
346.411
387.634
364.899
388.124
365.36
348.072
330.866
348.85
331.448
329.326
315.383
315.129
304.167
327.7
313.639
314.339
303.482
330.767
316.659
315.666
304.4
332.319
317.386
316.588
305.269
287.68
283.215
281.485
282.345
278.778
277.582
290.98
286.026
284.076
283.938
280.19
278.822
297.115
291.686
289.45
286.437
282.04
280.371
352.025
344.543
341.145
330.761
324.404
321.713
315.717
309.77
307.452
303.51
297.142
294.403
288.262
283.055
281
350.693
341.113
337.01
330.198
321.594
317.922
315.695
307.903
304.706
302.591
295.568
292.909
287.128
282.243
280.346
312.158
303.196
297.159
292.326
313.698
303.777
297.298
292.25
312.255
303.296
297.282
292.437
314.245
304.082
297.55
292.475
312.224
303.39
297.58
292.801
314.677
304.395
297.959
292.874
316.162
305.174
298.154
292.823
317.432
305.99
298.575
293.04
313.693
304.231
298.1
293.112
311.686
303.792
298.244
293.689
311.777
303.391
297.863
293.255
310.55
303.191
297.974
293.695
315.28
305.028
298.377
293.152
312.642
304.355
298.545
293.875
316.549
305.774
298.783
293.448
313.447
304.887
298.915
294.21
309.656
302.32
297.035
292.605
306.677
301.33
296.89
293.041
309.667
302.368
297.139
292.727
306.909
301.444
296.969
293.126
309.795
302.491
297.352
292.997
307.586
301.741
297.154
293.299
309.597
302.555
297.577
293.381
308.123
302.018
297.383
293.555
309.324
302.625
297.766
293.783
304.238
300.603
296.617
293.825
302.803
300.242
296.518
294.093
304.744
300.795
296.721
293.907
303.364
300.448
296.616
294.158
305.662
301.157
296.895
294.026
304.326
300.82
296.784
294.27
306.773
301.634
297.184
294.232
305.416
301.281
297.024
294.432
307.826
302.186
297.539
294.462
306.321
301.772
297.303
294.629
309.286
303.218
298.13
294.833
307.623
302.803
297.998
295.133
308.601
302.717
297.825
294.631
306.984
302.293
297.637
294.865
309.892
303.696
298.411
295.03
308.253
303.327
298.355
295.409
310.532
304.178
298.76
295.316
308.934
303.856
298.739
295.719
287.581
284.215
281.744
280.137
279.348
287.576
284.223
281.751
280.142
279.351
287.646
284.25
281.764
280.149
279.357
287.661
284.27
281.778
280.158
279.364
287.736
284.295
281.788
280.164
279.368
287.763
284.326
281.81
280.178
279.378
287.89
284.403
281.856
280.208
279.4
288.074
284.513
281.923
280.25
279.432
287.855
284.362
281.828
280.189
279.386
287.97
284.401
281.846
280.2
279.394
287.812
284.327
281.805
280.175
279.375
287.913
284.363
281.824
280.185
279.383
287.968
284.431
281.87
280.216
279.406
288.077
284.463
281.884
280.224
279.412
288.143
284.535
281.932
280.255
279.436
288.232
284.553
281.937
280.258
279.438
287.605
284.211
281.739
280.133
279.345
287.634
284.209
281.735
280.13
279.342
287.655
284.236
281.753
280.141
279.351
287.672
284.229
281.746
280.137
279.347
287.737
284.276
281.774
280.155
279.361
287.74
284.263
281.765
280.148
279.356
287.828
284.316
281.796
280.168
279.37
287.816
284.303
281.787
280.162
279.366
287.877
284.339
281.809
280.176
279.376
531.915
529.213
531.473
528.782
531.012
528.461
531.297
528.868
533.332
530.988
537.404
537.828
536.263
535.844
537.823
538.544
537.916
538.487
564.693
571.224
572.6
572.911
572.977
557.689
569.305
572.165
572.817
572.956
564.753
571.25
572.607
572.913
572.978
557.748
569.341
572.173
572.82
572.956
564.775
571.269
572.613
572.914
572.978
557.785
569.37
572.183
572.823
572.957
565.001
571.332
572.628
572.917
572.979
558.052
569.447
572.201
572.827
572.958
565.575
571.455
572.655
572.923
572.98
558.76
569.605
572.235
572.834
572.959
566.063
571.511
572.662
572.924
572.981
560.568
569.962
572.304
572.847
572.962
565.956
571.505
572.663
572.925
572.981
559.892
569.824
572.278
572.843
572.961
566.078
571.507
572.66
572.923
572.98
560.874
570.033
572.319
572.85
572.963
566.126
571.519
572.663
572.924
572.98
560.918
570.056
572.322
572.85
572.963
426.366
462.455
460.032
421.991
405.074
406.57
408.461
411.356
420.34
424.336
450.708
459.848
458.698
468.491
434.524
439.108
422.119
425.529
415.292
417.365
369.048
351.153
304.436
298.041
300.901
297.79
302.5
366.958
360.972
343.325
350.495
347.077
323.835
333.934
329.783
318.004
321.823
316.31
363.762
337.281
321.04
317.272
325.244
320.849
312.868
311.209
309.318
305.693
314.44
311.475
365.646
344.066
352.144
332.712
325.377
337.875
313.505
306.369
316.425
350.474
334.232
319.755
304.297
285.835
339.676
327.654
314.434
299.835
282.974
301.27
296.839
291.041
284.244
276.821
295.576
292.083
287.467
282.022
276.065
298.134
294.224
289.071
283.012
276.399
295.353
291.897
287.324
281.931
276.034
299.556
295.411
289.964
283.568
276.589
348.623
331.565
316.804
301.715
284.799
342.75
325.882
311.501
297.149
281.639
333.101
321.668
309.031
295.518
280.917
334.922
319.731
306.378
293.249
279.943
332.272
317.497
304.48
291.853
279.348
317.768
309.978
300.525
289.994
278.764
325.611
315.743
304.473
292.357
279.588
322.182
312.975
302.34
290.922
279.041
312.955
306.233
297.847
288.358
278.2
316.018
308.513
299.381
289.232
278.484
311.526
305.096
297.016
287.842
278.022
347.268
331.315
317.058
302.037
284.953
328.887
318.923
307.374
294.614
280.603
315.59
308.416
299.521
289.449
278.594
312.438
305.954
297.777
288.406
278.243
319.149
311.32
301.748
290.928
279.154
315.548
308.531
299.752
289.688
278.704
308.682
302.966
295.632
287.113
277.807
307.232
301.755
294.697
286.502
277.588
305.56
300.35
293.611
285.799
277.34
302.379
297.743
291.693
284.628
276.946
309.985
303.933
296.239
287.412
277.888
307.445
301.904
294.78
286.536
277.595
348.5
332.756
318.579
303.417
285.633
334.314
323.482
311.207
297.519
281.921
340.518
327.411
314.115
299.55
282.8
325.528
316.634
305.933
293.782
280.255
319.418
311.702
302.174
291.276
279.288
329.567
319.676
308.116
295.22
280.859
309.23
303.4
295.936
287.288
277.863
302.974
298.24
292.074
284.872
277.032
311.738
305.423
297.419
288.204
278.178
505.51
542.809
498.967
537.796
475.726
519.277
482.032
524.351
487.632
474.047
518.026
490.869
463.165
448.739
491.904
462.862
522.093
536.026
551.221
557.647
515.846
529.463
547.301
554.398
530.76
506.086
509.64
493.293
519.638
542.125
541.895
543.25
504.278
510.148
519.1
519.598
475.049
479.662
548.671
552.563
523.857
531.709
558.104
562.183
549.603
564.383
563.51
569.567
543.404
561.889
560.648
568.33
530.644
556.415
546.44
563.263
557.528
567.392
561.995
568.963
467.852
460.028
476.575
462.73
439.683
432.375
447.447
434.331
502.853
490.264
493.907
486.994
483.2
463.982
485.483
463.728
453.273
435.187
455.003
434.602
509.46
491.844
511.96
491.921
527.16
555.656
517.545
548.094
519.123
551.314
513.745
544.873
533.045
558.285
519.442
549.807
535.398
559.405
519.756
550.594
536.81
522.139
558.931
548.849
528.933
515.103
555.543
544.562
517.321
505.278
549.727
538.472
458.964
431.303
484.527
509.094
543.478
428.341
454.598
478.342
500.919
533.736
428.967
455.991
482.432
508.368
538.68
502.033
488.291
517.736
505.005
498.265
485.16
517.137
503.953
492.146
479.456
516.083
502.655
421.385
412.67
447.602
437.89
470.239
459.228
491.862
479.72
517.256
504.11
420.675
409.78
448.595
441.061
474.956
467.251
499.483
489.848
521.695
509.91
450.403
446.72
448.073
444.02
419.609
403.67
417.018
399.148
476.973
475.912
478.52
476.817
444.993
441.706
444.282
440.909
414.734
396.752
413.726
395.37
474.089
474.247
473.713
473.953
504.031
502.709
526.084
523.834
504.159
501.726
525.595
521.652
502.657
502.145
525.997
524.328
501.226
501.057
524.794
523.141
479.825
476.101
493.971
488.968
476.742
472.459
492.686
486.765
470.823
466.447
490.8
483.579
405.149
399.953
430.197
424.599
451.049
444.99
470.599
464.602
490.473
480.783
399.632
393.476
434.46
427.577
459.105
450.735
478.193
467.857
491.607
478.964
409.557
402.915
418.278
409.729
435.329
423.955
451.811
434.292
391.683
372.257
395.228
374.62
391.213
374.146
395.214
376.328
393.563
388.639
392.827
387.602
376.775
379.781
413.785
416.177
440.849
444.067
395.925
399.11
395.739
397.314
381.298
382.647
356.829
338.286
358.577
339.424
358.33
337.97
359.649
339.068
361.223
337.453
363.903
339.412
365.293
339.946
364.736
339.04
392.156
383.796
396.576
384.287
414.183
406.351
420.156
407.55
377.75
363.981
374.54
363.823
399.368
384.313
400.112
383.409
424.24
407.972
425.464
407.178
379.568
363.783
379.793
362.787
359.489
335.536
346.923
328.045
357.077
334.087
346.782
327.844
360.706
336.194
346.635
327.758
360.591
335.943
345.644
326.941
353.252
348.218
335.517
330.894
354.662
349.95
335.003
330.603
356.973
353.304
334.272
330.602
386.792
407.315
370.036
353.838
331.622
405.8
386.695
369.726
352.887
329.73
403.701
382.345
362.965
346.162
327.232
341.889
334.357
324.401
314.457
344.376
337.329
324.782
315.23
348.319
342.015
325.393
316.34
399.345
391.458
380.55
373.573
363.921
357.984
347.075
340.437
324.96
316.277
395.566
383.657
374.756
363.334
356.202
345.58
339.77
328.957
322.709
313.206
370.327
353.933
368.909
350.702
392.172
375.004
390.495
370.538
350.841
335.044
352.008
337.267
368.912
348.912
367.796
347.353
389.942
367.931
388.844
366.274
350.893
333.792
349.729
332.333
334.233
320.056
318.987
307.537
335.957
321.628
320.42
308.917
333.413
319.104
317.824
306.241
333.182
318.16
317.273
305.832
327.986
325.792
298.116
296.432
331.843
329.239
299.27
297.374
336.778
332.712
300.582
296.864
384.419
379.378
367.125
362.643
352.153
348.171
333.26
327.54
299.664
293.86
373.056
368.076
353.196
348.748
335.655
331.554
317.206
312.742
293.462
289.069
320.576
308.545
300.594
294.532
321.142
308.642
300.466
294.302
320.105
308.323
300.499
294.47
320.748
308.386
300.364
294.289
319.212
307.932
300.528
294.659
319.995
307.962
300.339
294.422
319.626
307.544
299.746
293.87
318.665
306.844
299.152
293.426
318.074
307.229
300.158
294.506
315.104
306.238
300.007
294.979
317.733
307.363
300.533
295.008
315.467
306.611
300.341
295.329
317.997
306.921
299.699
294.079
314.674
305.835
299.643
294.721
317.474
306.425
299.24
293.769
314.125
305.385
299.288
294.503
319.424
308.295
300.83
295.052
317.661
307.905
301.045
295.776
318.968
308.11
300.787
295.054
317.39
307.787
300.985
295.756
318.222
307.799
300.755
295.15
316.994
307.577
300.88
295.725
316.92
307.314
300.693
295.377
316.382
307.296
300.791
295.76
315.612
306.858
300.61
295.685
315.853
307.553
300.99
296.981
314.585
307.354
301.048
297.498
315.789
307.479
300.953
296.96
314.554
307.282
301.001
297.465
315.582
307.31
300.824
296.857
314.394
307.124
300.881
297.38
315.136
307.029
300.7
296.763
314.003
306.869
300.735
297.278
314.334
306.612
300.541
296.681
313.227
306.505
300.541
297.153
312.531
305.622
299.89
296.245
311.136
305.462
299.929
296.686
313.368
306.123
300.228
296.475
312.114
306.008
300.264
296.949
311.789
305.133
299.491
295.928
310.284
304.91
299.525
296.362
311.154
304.654
299.121
295.62
309.588
304.373
299.124
296.034
288.838
284.953
282.182
280.414
279.555
288.776
284.933
282.174
280.409
279.551
288.793
284.923
282.163
280.401
279.545
288.709
284.89
282.147
280.392
279.538
288.747
284.886
282.139
280.386
279.533
288.632
284.839
282.115
280.371
279.523
288.495
284.761
282.069
280.343
279.501
288.302
284.649
282.004
280.301
279.47
288.636
284.82
282.1
280.361
279.515
288.663
284.803
282.084
280.35
279.507
288.735
284.864
282.123
280.376
279.526
288.741
284.842
282.107
280.364
279.517
288.506
284.748
282.058
280.335
279.495
288.548
284.738
282.047
280.327
279.489
288.33
284.645
281.997
280.297
279.467
288.396
284.649
281.995
280.294
279.464
288.925
284.976
282.191
280.419
279.558
289.001
284.991
282.196
280.421
279.56
288.895
284.954
282.177
280.409
279.551
288.975
284.974
282.185
280.414
279.554
288.851
284.919
282.154
280.395
279.54
288.927
284.941
282.165
280.401
279.544
288.821
284.887
282.133
280.381
279.529
288.862
284.902
282.141
280.385
279.533
288.793
284.866
282.12
280.372
279.523
529.59
528.132
529.776
528.289
530.313
528.814
531.511
529.893
533.867
532.12
537.613
538.108
536.581
536.349
537.946
538.696
537.957
538.536
564.448
571.198
572.597
572.911
572.978
557.387
569.258
572.159
572.816
572.956
564.588
571.234
572.606
572.913
572.978
557.584
569.316
572.171
572.82
572.956
564.735
571.27
572.614
572.914
572.978
557.822
569.377
572.185
572.823
572.957
565.07
571.347
572.631
572.918
572.979
558.255
569.482
572.208
572.828
572.958
565.677
571.474
572.659
572.924
572.981
559.01
569.651
572.244
572.836
572.96
566.111
571.522
572.664
572.925
572.981
560.677
569.989
572.311
572.849
572.963
566.029
571.522
572.666
572.925
572.981
560.069
569.864
572.287
572.844
572.962
566.106
571.514
572.662
572.924
572.98
560.933
570.049
572.322
572.851
572.963
566.135
571.521
572.663
572.924
572.98
560.936
570.061
572.323
572.851
572.963
426.545
462.232
459.149
422.478
415.881
421.978
413.521
421.094
442.886
459.27
446.744
461.218
281.524
282.135
283.496
285.688
288.843
293.091
282.041
282.666
284.051
286.259
289.373
293.47
281.131
280.937
281.782
281.655
283.237
283.263
285.597
285.92
288.955
289.654
293.256
294.054
298.53
305.174
313.178
322.603
331.661
337.599
298.589
304.677
311.588
318.818
325.176
329.136
280.713
279.546
277.982
276.115
274.06
281.264
280.013
278.336
276.336
274.135
282.493
281.054
279.126
276.829
274.302
284.471
282.727
280.395
277.621
274.571
287.315
285.13
282.216
278.756
274.957
291.135
288.351
284.652
280.273
275.472
281.18
279.943
278.283
276.303
274.124
281.744
280.419
278.644
276.528
274.2
282.994
281.477
279.447
277.029
274.37
284.985
283.161
280.723
277.825
274.641
287.789
285.528
282.516
278.942
275.02
291.471
288.631
284.862
280.403
275.516
280.358
279.246
277.753
275.972
274.011
280.182
279.097
277.64
275.902
273.987
280.946
279.744
278.132
276.208
274.091
280.831
279.646
278.058
276.162
274.076
282.259
280.856
278.976
276.736
274.271
282.284
280.877
278.992
276.746
274.274
284.39
282.66
280.345
277.589
274.561
284.682
282.907
280.532
277.707
274.6
287.417
285.218
282.284
278.798
274.971
288.048
285.752
282.688
279.05
275.057
291.287
288.481
284.751
280.334
275.493
292.006
289.088
285.21
280.618
275.589
296.009
292.446
287.742
282.195
276.125
301.926
297.391
291.464
284.513
276.915
308.98
303.239
295.858
287.265
277.86
317.136
309.927
300.89
290.464
278.99
324.726
316.049
305.519
293.496
280.123
329.607
319.958
308.491
295.478
280.888
296.057
292.483
287.77
282.214
276.132
301.485
297.025
291.192
284.346
276.858
307.604
302.116
295.022
286.74
277.677
313.939
307.352
298.96
289.219
278.536
319.438
311.863
302.358
291.381
279.299
322.84
314.648
304.463
292.733
279.782
281.629
282.457
284.057
286.525
290.01
294.655
282.15
282.998
284.624
287.102
290.515
294.931
281.237
281.047
282.109
281.995
283.811
283.866
286.468
286.849
290.188
290.971
294.979
295.946
300.515
307.483
315.607
324.768
333.141
338.122
300.344
306.625
313.541
320.506
326.322
329.541
280.808
279.628
278.044
276.154
274.073
281.557
280.263
278.527
276.455
274.176
283.003
281.488
279.458
277.037
274.373
285.232
283.377
280.892
277.933
274.678
288.376
286.038
282.912
279.193
275.106
292.562
289.574
285.592
280.866
275.675
281.279
280.027
278.347
276.343
274.137
282.045
280.676
278.841
276.652
274.242
283.514
281.921
279.786
277.242
274.443
285.751
283.814
281.224
278.139
274.748
288.829
286.417
283.198
279.371
275.167
292.804
289.773
285.741
280.958
275.706
280.454
279.327
277.816
276.011
274.024
280.282
279.181
277.705
275.942
274.001
281.242
279.996
278.324
276.329
274.133
281.139
279.909
278.258
276.288
274.118
282.781
281.301
279.316
276.949
274.343
282.831
281.343
279.348
276.969
274.35
285.181
283.335
280.861
277.914
274.671
285.526
283.627
281.084
278.053
274.719
288.54
286.178
283.02
279.261
275.129
289.247
286.778
283.475
279.546
275.226
292.859
289.829
285.788
280.988
275.716
293.734
290.571
286.352
281.34
275.836
297.826
294.01
288.95
282.96
276.387
304.05
299.23
292.894
285.423
277.227
311.233
305.208
297.403
288.256
278.203
319.168
311.728
302.322
291.395
279.315
326.136
317.314
306.539
294.169
280.362
330.11
320.413
308.861
295.725
280.977
297.663
293.865
288.836
282.888
276.363
303.274
298.571
292.391
285.107
277.119
309.406
303.683
296.244
287.521
277.947
315.507
308.725
300.04
289.913
278.777
320.51
312.808
303.106
291.866
279.468
323.221
314.985
304.731
292.908
279.843
369.853
351.838
307.238
300.289
304.059
300.301
305.543
376.595
374.843
352.868
365.261
331.398
343.64
324.566
328.936
322.096
370.136
344.074
327.31
322.395
331.077
325.315
316.084
315.182
314.229
309.83
319.942
316.074
368.17
346.057
356.622
335.725
329.193
343.085
317.307
309.983
320.911
351.348
335.051
320.462
304.81
286.044
340.364
328.295
314.971
300.208
283.117
303.851
299.077
292.783
285.354
277.203
297.634
293.856
288.837
282.889
276.363
301.033
296.729
291.013
284.245
276.823
297.652
293.878
288.856
282.9
276.366
302.355
297.834
291.847
284.765
277
359.481
342.013
325.713
307.933
287.236
358.318
340.761
324
305.607
284.632
342.838
330.862
316.702
300.681
282.774
351.691
335.682
319.761
302.247
283.139
325.1
316.656
305.947
293.556
280.01
335.38
324.877
312.031
297.388
281.362
319.225
311.877
302.387
291.32
279.232
323.035
315
304.707
292.758
279.723
317.077
310.116
301.071
290.496
278.948
354.185
338.023
322.832
306.12
286.615
335.597
325.135
312.501
298.048
281.838
321.575
313.799
303.851
292.276
279.581
317.271
310.254
301.205
290.63
279.017
324.741
316.372
305.831
293.61
280.097
319.769
312.296
302.762
291.649
279.389
311.676
305.595
297.703
288.446
278.269
310.93
305.001
297.252
288.144
278.155
310.127
304.354
296.761
287.821
278.038
306.199
301.065
294.285
286.282
277.515
315.165
308.532
299.896
289.78
278.709
311.737
305.681
297.761
288.455
278.259
351.225
335.316
320.786
305.006
286.29
336.282
325.299
312.716
298.551
282.308
345.103
331.733
317.779
302.09
283.752
328.427
319.261
308.071
295.203
280.763
323.043
314.952
304.787
292.99
279.891
334.687
324.405
312.024
297.846
281.81
312.78
306.525
298.403
288.878
278.414
306.318
301.154
294.352
286.328
277.533
315.954
309.158
300.387
290.126
278.846
280.423
294.781
307.943
319.359
328.408
335.196
487.076
481.305
458.293
463.945
472
463.26
448.976
438.679
505.982
521.014
499.768
513.267
490.742
482.431
501.928
477.62
472.939
450.531
455.083
465.058
457.335
442.773
433.926
496.379
507.26
490.954
500.506
482.559
474.862
490.631
464.5
461.077
439.711
443.052
454.946
448.682
433.704
426.221
481.743
492.291
477.412
486.946
470.973
464.468
478.916
451.003
448.475
428.416
430.975
443.587
438.196
423.573
417.121
467.989
479.181
464.507
474.799
459.278
453.059
467.691
441.25
439.203
420.195
422.36
434.971
430.309
415.969
410.063
457.624
469.571
454.655
466.06
450.44
444.955
459.872
434.655
432.842
414.585
416.551
429.052
424.972
410.673
405.18
450.813
464.368
448.097
460.955
444.599
439.714
454.768
409.599
406.528
431.776
435.994
402.259
396.961
424.903
416.48
387.507
367.4
386.564
369.033
382.865
382.285
371.629
405.497
402.632
426.15
429.825
398.634
393.69
420.053
412.235
383.037
363.585
382.247
365.378
378.776
378.642
367.76
398.963
396.428
417.763
420.734
392.873
388.34
412.682
405.92
378.462
358.834
377.611
360.462
374.453
374.253
362.656
390.843
388.633
408.279
410.713
385.313
380.789
403.981
397.654
371.704
352.866
370.963
354.315
368.086
367.841
356.538
384.332
382.32
401.111
403.256
379.337
375.048
397.243
391.412
365.887
348.37
365.241
349.468
362.858
362.554
351.738
379.671
377.795
396.138
398.121
375.194
371.372
392.525
387.112
362.165
345.327
361.647
346.406
359.511
359.394
348.914
539.911
555.796
529.066
548.305
514.163
538.784
488.344
517.63
487.922
511.102
510.985
533.632
524.936
544.482
534.728
552.145
505.663
485.96
525.164
496.656
478.015
457.418
497.562
466.901
547.762
555.088
560.225
564.201
537.287
546.52
553.674
559.508
537.685
522.82
515.751
505.996
534.305
547.961
544.041
543.733
506.631
510.716
520.872
520.011
476.628
480.034
550.966
553.065
526.315
532.293
559.893
562.552
560.037
567.819
567.252
570.826
553.183
565.111
563.751
569.424
539.922
559.447
550.91
564.771
559.123
567.959
562.312
569.083
472.023
460.325
479.198
462.683
440.672
430.234
448.309
432.911
506.224
490.902
499.584
488.433
484.371
463.821
485.765
463.629
453.578
434.326
455.031
434.285
511.014
492.061
512.363
491.949
529.903
556.606
518.207
548.327
523.718
552.908
515.097
545.347
534.34
558.751
519.713
549.904
535.744
559.537
519.815
550.617
554.049
542.042
564.404
555.576
544.307
532.349
560.489
550.453
530.06
518.915
553.831
543.033
457.693
421.029
489.241
514.726
545.535
415.531
452.15
483.768
507.894
536.278
420.817
454.256
484.203
510.555
539.452
520.62
502.15
525.215
507.58
514.508
497.446
523.033
505.265
505.302
489.362
519.93
502.383
405.659
393.546
443.435
431.098
473.753
460.44
497.048
482.489
518.423
502.097
409.76
396.508
444.669
434.504
474.97
464.31
500.361
487.884
521.576
507.411
448.16
442.969
446.518
441.584
414.033
395.556
413.891
394.525
476.433
474.754
478.158
475.297
444.05
440.371
443.963
440.486
413.071
394.387
413.19
394.641
473.664
473.537
473.556
473.719
503.901
502.173
525.946
523.468
504.323
500.997
525.521
521.007
502.496
501.803
525.884
524.117
501.153
500.931
524.749
523.069
482.728
468.185
460.767
485.649
469.928
462.221
479.405
464.671
456.949
483.483
467.237
459.146
471.606
456.822
449.022
480.516
463.075
454.324
380.783
372.095
368.04
417.005
404.945
398.577
444.938
430.235
422.045
464.794
448.918
440.589
479.114
459.668
449.717
382.295
371.387
366.187
422.415
409.456
402.557
449.928
433.973
424.969
469.399
450.27
439.755
481.433
459.305
447.638
411.82
403.055
417.459
408.808
443.247
428.22
453.669
435.796
387.698
365.308
388.867
367.265
389.022
368.022
390.906
370.159
390.592
386.627
389.959
384.444
371.426
375.127
412.986
415.864
441.276
444.12
393.944
398.415
393.891
396.654
378.267
381.552
343.364
325.809
348.781
329.248
345.976
326.382
351.329
330.313
350.182
327.129
357.366
332.265
361.336
335.468
363.349
337.473
385.768
376.414
393.292
379.956
411.445
401.267
418.917
404.521
372.708
358.918
365.382
355.384
397.617
381.971
399.543
382.642
423.518
406.303
425.196
406.615
376.872
361.029
378.935
361.895
353.029
329.518
341.795
323.612
346.283
325.37
338.539
321.195
357.169
332.624
343.796
325.202
359.469
334.767
344.723
326.102
326.744
315.382
319.023
311.438
329.035
318.127
319.348
312.197
333.444
324.196
320.292
314.394
366.824
390.312
349.427
336.53
320.153
385.4
362.188
342.865
330.534
316.264
390.024
366.751
348.124
333.585
318.239
305.87
296.954
303.877
295.663
309.013
300.014
305.28
297.173
315.15
305.995
308.025
299.959
375.256
363.489
352.383
341.075
335.223
325.244
323.061
313.492
311.371
303.264
378.683
364.375
356.193
342.638
339.178
327.25
325.895
314.743
313.451
304.533
360.4
342.401
363.543
344.451
383.425
363.759
385.882
364.48
345.384
329.279
342.416
327.028
366.195
345.777
366.947
346.407
387.627
364.894
388.118
365.355
348.066
330.862
348.844
331.444
329.321
315.38
315.125
304.164
327.694
313.635
314.335
303.479
330.761
316.656
315.662
304.398
332.314
317.383
316.584
305.267
287.613
283.138
281.403
282.354
278.765
277.563
290.987
286.034
284.082
283.933
280.192
278.824
297.117
291.689
289.452
286.435
282.04
280.371
352.022
344.541
341.144
330.759
324.403
321.712
315.715
309.77
307.452
303.509
297.142
294.404
288.261
283.055
281
350.69
341.112
337.009
330.195
321.593
317.922
315.692
307.903
304.706
302.589
295.568
292.909
287.127
282.243
280.346
312.151
303.19
297.152
292.317
313.68
303.764
297.287
292.24
312.252
303.293
297.281
292.436
314.242
304.081
297.549
292.474
312.221
303.388
297.579
292.801
314.674
304.393
297.958
292.874
316.158
305.172
298.153
292.823
317.429
305.988
298.574
293.04
313.69
304.229
298.099
293.111
311.682
303.79
298.243
293.688
311.773
303.389
297.862
293.254
310.547
303.189
297.972
293.694
315.276
305.026
298.375
293.151
312.639
304.353
298.544
293.874
316.545
305.772
298.782
293.447
313.445
304.885
298.914
294.21
309.653
302.317
297.03
292.597
306.671
301.326
296.886
293.034
309.664
302.366
297.138
292.727
306.907
301.442
296.968
293.126
309.792
302.489
297.351
292.997
307.583
301.739
297.153
293.299
309.594
302.553
297.575
293.381
308.12
302.016
297.382
293.554
309.32
302.623
297.765
293.782
304.233
300.599
296.613
293.819
302.792
300.236
296.514
294.089
304.742
300.793
296.72
293.906
303.363
300.447
296.615
294.157
305.66
301.156
296.894
294.025
304.324
300.819
296.783
294.269
306.77
301.632
297.183
294.231
305.413
301.279
297.022
294.431
307.823
302.184
297.538
294.461
306.318
301.77
297.302
294.628
309.283
303.216
298.128
294.832
307.62
302.801
297.996
295.132
308.598
302.715
297.824
294.63
306.981
302.291
297.636
294.864
309.89
303.694
298.41
295.029
308.251
303.325
298.353
295.408
310.529
304.176
298.758
295.315
308.931
303.854
298.737
295.718
287.578
284.214
281.743
280.137
279.347
287.571
284.221
281.75
280.141
279.351
287.646
284.25
281.764
280.149
279.357
287.661
284.27
281.778
280.158
279.364
287.736
284.295
281.789
280.164
279.368
287.763
284.326
281.81
280.178
279.379
287.89
284.403
281.856
280.208
279.4
288.073
284.513
281.923
280.25
279.432
287.854
284.362
281.828
280.189
279.387
287.97
284.4
281.846
280.2
279.394
287.812
284.327
281.806
280.175
279.376
287.912
284.363
281.824
280.185
279.383
287.967
284.431
281.87
280.216
279.406
288.077
284.463
281.884
280.224
279.412
288.142
284.534
281.932
280.255
279.436
288.231
284.553
281.937
280.258
279.438
287.602
284.21
281.738
280.133
279.344
287.632
284.208
281.735
280.13
279.342
287.654
284.236
281.753
280.141
279.351
287.671
284.228
281.746
280.137
279.347
287.737
284.276
281.774
280.155
279.361
287.74
284.263
281.765
280.148
279.356
287.828
284.316
281.796
280.168
279.37
287.815
284.303
281.787
280.162
279.366
287.877
284.339
281.809
280.176
279.376
531.982
529.289
531.484
528.791
531.015
528.463
531.297
528.868
533.331
530.987
537.403
537.826
536.261
535.842
537.821
538.542
537.914
538.485
564.749
571.239
572.603
572.911
572.978
557.724
569.315
572.167
572.817
572.956
564.749
571.249
572.607
572.913
572.978
557.751
569.342
572.173
572.82
572.956
564.774
571.269
572.613
572.914
572.978
557.786
569.37
572.183
572.823
572.957
565.001
571.332
572.628
572.917
572.979
558.052
569.447
572.202
572.827
572.958
565.575
571.455
572.655
572.923
572.98
558.76
569.605
572.235
572.834
572.959
566.063
571.511
572.662
572.924
572.981
560.567
569.962
572.304