/*--------------------------------*- C++ -*----------------------------------*\
  =========                 |
  \\      /  F ield         | OpenFOAM: The Open Source CFD Toolbox
   \\    /   O peration     | Website:  https://openfoam.org
    \\  /    A nd           | Version:  11
     \\/     M anipulation  |
\*---------------------------------------------------------------------------*/
FoamFile
{
    format      ascii;
    class       volScalarField;
    location    "5.5";
    object      epsilon;
}
// * * * * * * * * * * * * * * * * * * * * * * * * * * * * * * * * * * * * * //

dimensions      [0 2 -3 0 0 0 0];

internalField   nonuniform List<scalar> 
700
(
5.01911e-05
5.01911e-05
5.01911e-05
5.01911e-05
5.01911e-05
5.01911e-05
5.01911e-05
5.01911e-05
5.01911e-05
5.01911e-05
5.01911e-05
5.01911e-05
5.01911e-05
5.01911e-05
5.01911e-05
5.01911e-05
5.01911e-05
5.01911e-05
5.01911e-05
5.01911e-05
5.01911e-05
5.01911e-05
5.01911e-05
5.01911e-05
5.01911e-05
5.01911e-05
5.01911e-05
5.01911e-05
5.01911e-05
5.01911e-05
5.01911e-05
5.01911e-05
5.01911e-05
5.01911e-05
5.01911e-05
5.01911e-05
5.01911e-05
5.01911e-05
5.01911e-05
5.01911e-05
5.01911e-05
5.01911e-05
5.01911e-05
5.01911e-05
5.01911e-05
5.01911e-05
5.01911e-05
5.01911e-05
5.01911e-05
5.01911e-05
5.01911e-05
5.01911e-05
5.01911e-05
5.01911e-05
5.01911e-05
5.01911e-05
5.01911e-05
5.01911e-05
5.01911e-05
5.01911e-05
5.01912e-05
5.01912e-05
5.01912e-05
5.01911e-05
5.01911e-05
5.01911e-05
5.01911e-05
5.01911e-05
5.01911e-05
5.01911e-05
5.01927e-05
5.01921e-05
5.01916e-05
5.01913e-05
5.01912e-05
5.01912e-05
5.01911e-05
5.0191e-05
5.01908e-05
5.01905e-05
5.02312e-05
5.02142e-05
5.02007e-05
5.01943e-05
5.01921e-05
5.01916e-05
5.0191e-05
5.01891e-05
5.0184e-05
5.01762e-05
5.09702e-05
5.05747e-05
5.03344e-05
5.02343e-05
5.02027e-05
5.01941e-05
5.01859e-05
5.01598e-05
5.00857e-05
4.99086e-05
5.50314e-05
5.24484e-05
5.0985e-05
5.04316e-05
5.02471e-05
5.018e-05
5.01269e-05
5.00564e-05
4.99679e-05
4.99503e-05
5.38396e-05
5.26401e-05
5.1325e-05
5.06509e-05
5.03559e-05
5.02388e-05
5.01821e-05
5.0126e-05
5.00447e-05
4.99683e-05
5.23369e-05
5.21962e-05
5.13574e-05
5.07991e-05
5.04801e-05
5.03189e-05
5.02428e-05
5.01991e-05
5.01528e-05
5.00922e-05
5.0565e-05
5.125e-05
5.09941e-05
5.07276e-05
5.05167e-05
5.03743e-05
5.02892e-05
5.02414e-05
5.02098e-05
5.01766e-05
4.86802e-05
4.99163e-05
5.02284e-05
5.0339e-05
5.03489e-05
5.03186e-05
5.02807e-05
5.02491e-05
5.02259e-05
5.02069e-05
4.69974e-05
4.84802e-05
4.92289e-05
4.96883e-05
4.9953e-05
5.0094e-05
5.0162e-05
5.01903e-05
5.01993e-05
5.01995e-05
4.5882e-05
4.73735e-05
4.83639e-05
4.90481e-05
4.95034e-05
4.97942e-05
4.9972e-05
5.00755e-05
5.01327e-05
5.01625e-05
4.56117e-05
4.69914e-05
4.80293e-05
4.87746e-05
4.92932e-05
4.96418e-05
4.98676e-05
5.00083e-05
5.00921e-05
5.01391e-05
4.63193e-05
4.75141e-05
4.84063e-05
4.90383e-05
4.94731e-05
4.97629e-05
4.99503e-05
5.00693e-05
5.01454e-05
5.01971e-05
4.8131e-05
4.88304e-05
4.9306e-05
4.96437e-05
4.98741e-05
5.0027e-05
5.01311e-05
5.02125e-05
5.02939e-05
5.0395e-05
4.9819e-05
4.97419e-05
4.98355e-05
4.99536e-05
5.00516e-05
5.01228e-05
5.01737e-05
5.02137e-05
5.02495e-05
5.02797e-05
5.00174e-05
5.00082e-05
5.00364e-05
5.00807e-05
5.01231e-05
5.01571e-05
5.01827e-05
5.02028e-05
5.02191e-05
5.02306e-05
5.01221e-05
5.0122e-05
5.0131e-05
5.01463e-05
5.01626e-05
5.01767e-05
5.0188e-05
5.01968e-05
5.02037e-05
5.0208e-05
5.01682e-05
5.01684e-05
5.01709e-05
5.01756e-05
5.0181e-05
5.01861e-05
5.01904e-05
5.01939e-05
5.01965e-05
5.01981e-05
5.01854e-05
5.01853e-05
5.01858e-05
5.01868e-05
5.01883e-05
5.01898e-05
5.01913e-05
5.01925e-05
5.01934e-05
5.01939e-05
5.01906e-05
5.01904e-05
5.01904e-05
5.01904e-05
5.01907e-05
5.0191e-05
5.01914e-05
5.01918e-05
5.0192e-05
5.01922e-05
5.01916e-05
5.01915e-05
5.01914e-05
5.01913e-05
5.01912e-05
5.01913e-05
5.01913e-05
5.01914e-05
5.01915e-05
5.01915e-05
5.01916e-05
5.01915e-05
5.01914e-05
5.01913e-05
5.01913e-05
5.01913e-05
5.01913e-05
5.01913e-05
5.01913e-05
5.01913e-05
5.01914e-05
5.01914e-05
5.01913e-05
5.01913e-05
5.01912e-05
5.01912e-05
5.01912e-05
5.01912e-05
5.01912e-05
5.01912e-05
5.01913e-05
5.01912e-05
5.01912e-05
5.01912e-05
5.01912e-05
5.01912e-05
5.01912e-05
5.01912e-05
5.01912e-05
5.01912e-05
5.01911e-05
5.01911e-05
5.01911e-05
5.01911e-05
5.01911e-05
5.01911e-05
5.01911e-05
5.01911e-05
5.01911e-05
5.01911e-05
5.01911e-05
5.01911e-05
5.01911e-05
5.01911e-05
5.01911e-05
5.01911e-05
5.01911e-05
5.01911e-05
5.01911e-05
5.01911e-05
5.01911e-05
5.01911e-05
5.01911e-05
5.01911e-05
5.01911e-05
5.01911e-05
5.01911e-05
5.01911e-05
5.01911e-05
5.01911e-05
5.01911e-05
5.01911e-05
5.01911e-05
5.01911e-05
5.01911e-05
5.01911e-05
5.01911e-05
5.01911e-05
5.01911e-05
5.01911e-05
5.01911e-05
5.01911e-05
5.01911e-05
5.01911e-05
5.01911e-05
5.01911e-05
5.01911e-05
5.01911e-05
5.01911e-05
5.01911e-05
5.01911e-05
5.01911e-05
5.01911e-05
5.01911e-05
5.01911e-05
5.01911e-05
5.01911e-05
5.01911e-05
5.01911e-05
5.01911e-05
5.01911e-05
5.01911e-05
5.01911e-05
5.01911e-05
5.01911e-05
5.01911e-05
5.01911e-05
5.01911e-05
5.01911e-05
5.01911e-05
5.01911e-05
5.01911e-05
5.01911e-05
5.01911e-05
5.01911e-05
5.01911e-05
5.01911e-05
5.01911e-05
5.01911e-05
5.01911e-05
5.01911e-05
5.01911e-05
5.01911e-05
5.01911e-05
5.01911e-05
5.01911e-05
5.01911e-05
5.01911e-05
5.01911e-05
5.01911e-05
5.01911e-05
5.01911e-05
5.01911e-05
5.01911e-05
5.01911e-05
5.01911e-05
5.01911e-05
5.01911e-05
5.01911e-05
5.01911e-05
5.0356e-05
5.0391e-05
5.04302e-05
5.0467e-05
5.04944e-05
5.05094e-05
5.05125e-05
5.05005e-05
5.04795e-05
5.04558e-05
5.0282e-05
5.03161e-05
5.03503e-05
5.03726e-05
5.03755e-05
5.03601e-05
5.03315e-05
5.02962e-05
5.02601e-05
5.02254e-05
5.02463e-05
5.02682e-05
5.02866e-05
5.02916e-05
5.02801e-05
5.0257e-05
5.02292e-05
5.02022e-05
5.01788e-05
5.01595e-05
5.02316e-05
5.02436e-05
5.02496e-05
5.02451e-05
5.02312e-05
5.02135e-05
5.0197e-05
5.01843e-05
5.01757e-05
5.01707e-05
5.02351e-05
5.0243e-05
5.02399e-05
5.0229e-05
5.0215e-05
5.02023e-05
5.01934e-05
5.01887e-05
5.01881e-05
5.0192e-05
5.0259e-05
5.02728e-05
5.02614e-05
5.02406e-05
5.02206e-05
5.02058e-05
5.01967e-05
5.01922e-05
5.01913e-05
5.01938e-05
5.0311e-05
5.03513e-05
5.03299e-05
5.02887e-05
5.02505e-05
5.02223e-05
5.02034e-05
5.019e-05
5.0178e-05
5.01636e-05
5.04061e-05
5.05148e-05
5.04812e-05
5.04022e-05
5.03263e-05
5.02663e-05
5.02181e-05
5.01706e-05
5.01117e-05
5.0042e-05
5.05704e-05
5.08244e-05
5.07749e-05
5.06362e-05
5.04976e-05
5.03764e-05
5.02555e-05
5.00963e-05
4.98601e-05
4.9592e-05
5.07523e-05
5.137e-05
5.1373e-05
5.12221e-05
5.10568e-05
5.0893e-05
5.06773e-05
5.02766e-05
4.94451e-05
4.78048e-05
5.02874e-05
5.02528e-05
5.02282e-05
5.02156e-05
5.02113e-05
5.02111e-05
5.02071e-05
5.01803e-05
5.0077e-05
4.97392e-05
5.02322e-05
5.02218e-05
5.02106e-05
5.02019e-05
5.01948e-05
5.01857e-05
5.01686e-05
5.01333e-05
5.00665e-05
4.99711e-05
5.02084e-05
5.02047e-05
5.01996e-05
5.01942e-05
5.01879e-05
5.01787e-05
5.01637e-05
5.01398e-05
5.01068e-05
5.00752e-05
5.01981e-05
5.01966e-05
5.01942e-05
5.0191e-05
5.01868e-05
5.01804e-05
5.01708e-05
5.01576e-05
5.01423e-05
5.01305e-05
5.01938e-05
5.01932e-05
5.0192e-05
5.01903e-05
5.01878e-05
5.01842e-05
5.0179e-05
5.01725e-05
5.01657e-05
5.0161e-05
5.01921e-05
5.01918e-05
5.01913e-05
5.01905e-05
5.01892e-05
5.01874e-05
5.01849e-05
5.01819e-05
5.0179e-05
5.01772e-05
5.01915e-05
5.01914e-05
5.01911e-05
5.01907e-05
5.01902e-05
5.01894e-05
5.01883e-05
5.0187e-05
5.01859e-05
5.01851e-05
5.01913e-05
5.01912e-05
5.01911e-05
5.0191e-05
5.01907e-05
5.01904e-05
5.01899e-05
5.01895e-05
5.0189e-05
5.01887e-05
5.01912e-05
5.01912e-05
5.01911e-05
5.01911e-05
5.0191e-05
5.01908e-05
5.01907e-05
5.01905e-05
5.01903e-05
5.01902e-05
5.01912e-05
5.01912e-05
5.01911e-05
5.01911e-05
5.01911e-05
5.0191e-05
5.0191e-05
5.01909e-05
5.01908e-05
5.01908e-05
5.01911e-05
5.01911e-05
5.01911e-05
5.01911e-05
5.01911e-05
5.01911e-05
5.01911e-05
5.01911e-05
5.01911e-05
5.01911e-05
5.01911e-05
5.01911e-05
5.01911e-05
5.01911e-05
5.01911e-05
5.01911e-05
5.01911e-05
5.01911e-05
5.01911e-05
5.01911e-05
5.01911e-05
5.01911e-05
5.01911e-05
5.01911e-05
5.01911e-05
5.01911e-05
5.01911e-05
5.01911e-05
5.01911e-05
5.01911e-05
5.01911e-05
5.01911e-05
5.01911e-05
5.01911e-05
5.01911e-05
5.01911e-05
5.01911e-05
5.01911e-05
5.01911e-05
5.01911e-05
5.01911e-05
5.01911e-05
5.01911e-05
5.01911e-05
5.01911e-05
5.01911e-05
5.01911e-05
5.01911e-05
5.01911e-05
5.01911e-05
5.01911e-05
5.01911e-05
5.01911e-05
5.01911e-05
5.01911e-05
5.01911e-05
5.01911e-05
5.01911e-05
5.01911e-05
5.01911e-05
5.01911e-05
5.01911e-05
5.01911e-05
5.01911e-05
5.01911e-05
5.01911e-05
5.01911e-05
5.01911e-05
5.01911e-05
5.01911e-05
5.01911e-05
5.01911e-05
5.01911e-05
5.01911e-05
5.01911e-05
5.01911e-05
5.01911e-05
5.01911e-05
5.01911e-05
5.01911e-05
5.01911e-05
5.01911e-05
5.01911e-05
5.01911e-05
5.01911e-05
5.01911e-05
5.01911e-05
5.01911e-05
5.01911e-05
5.01911e-05
5.01911e-05
5.01911e-05
5.01911e-05
5.01911e-05
5.01911e-05
5.01911e-05
5.01911e-05
5.01911e-05
5.01911e-05
5.01911e-05
)
;

boundaryField
{
    defaultFaces
    {
        type            empty;
    }
}


// ************************************************************************* //
