/*--------------------------------*- C++ -*----------------------------------*\
  =========                 |
  \\      /  F ield         | OpenFOAM: The Open Source CFD Toolbox
   \\    /   O peration     | Website:  https://openfoam.org
    \\  /    A nd           | Version:  11
     \\/     M anipulation  |
\*---------------------------------------------------------------------------*/
FoamFile
{
    format      ascii;
    class       volScalarField;
    location    "5.5";
    object      k;
}
// * * * * * * * * * * * * * * * * * * * * * * * * * * * * * * * * * * * * * //

dimensions      [0 2 -2 0 0 0 0];

internalField   nonuniform List<scalar> 
700
(
0.00027958
0.00027958
0.00027958
0.00027958
0.00027958
0.00027958
0.00027958
0.00027958
0.00027958
0.00027958
0.00027958
0.00027958
0.00027958
0.00027958
0.00027958
0.00027958
0.00027958
0.00027958
0.00027958
0.00027958
0.00027958
0.00027958
0.00027958
0.00027958
0.00027958
0.00027958
0.00027958
0.00027958
0.00027958
0.00027958
0.00027958
0.00027958
0.00027958
0.00027958
0.00027958
0.00027958
0.00027958
0.00027958
0.00027958
0.00027958
0.00027958
0.00027958
0.00027958
0.00027958
0.00027958
0.00027958
0.00027958
0.00027958
0.00027958
0.00027958
0.00027958
0.00027958
0.00027958
0.00027958
0.00027958
0.00027958
0.00027958
0.00027958
0.00027958
0.00027958
0.00027958
0.00027958
0.00027958
0.00027958
0.00027958
0.00027958
0.00027958
0.00027958
0.00027958
0.00027958
0.000279592
0.000279587
0.000279583
0.000279581
0.00027958
0.00027958
0.00027958
0.000279579
0.000279577
0.000279576
0.000279853
0.000279744
0.000279652
0.000279605
0.000279588
0.000279582
0.000279577
0.000279563
0.000279529
0.00027948
0.000284457
0.000282097
0.000280579
0.000279901
0.000279667
0.000279591
0.00027952
0.000279337
0.000278876
0.00027785
0.000308032
0.000293278
0.000284663
0.000281226
0.000279987
0.000279488
0.000279105
0.000278642
0.000278095
0.00027796
0.000301247
0.000294395
0.000286725
0.000282627
0.000280733
0.000279918
0.000279493
0.000279095
0.000278573
0.000278091
0.000292311
0.000291594
0.000286813
0.00028351
0.000281538
0.000280483
0.000279944
0.000279612
0.00027928
0.000278876
0.000281738
0.00028575
0.000284423
0.000282939
0.000281704
0.000280829
0.000280276
0.00027994
0.000279703
0.000279461
0.000270615
0.000277704
0.000279635
0.000280393
0.00028053
0.000280393
0.000280182
0.000279987
0.000279831
0.000279694
0.000260802
0.000269203
0.000273564
0.000276317
0.000277959
0.000278874
0.00027934
0.00027955
0.000279627
0.000279636
0.000254367
0.000262746
0.000268409
0.000272403
0.000275131
0.000276926
0.000278062
0.000278749
0.000279146
0.000279364
0.000252856
0.000260569
0.000266456
0.000270765
0.000273834
0.000275955
0.000277374
0.00027829
0.000278859
0.000279197
0.000256987
0.000263663
0.000268723
0.000272379
0.000274959
0.000276728
0.000277908
0.000278676
0.000279172
0.000279499
0.000267393
0.000271324
0.000274058
0.000276052
0.000277452
0.000278405
0.000279051
0.00027952
0.000279921
0.000280346
0.000277043
0.000276651
0.000277237
0.000277973
0.000278596
0.000279057
0.000279382
0.000279619
0.000279804
0.000279943
0.000278324
0.000278296
0.000278494
0.00027879
0.000279075
0.000279306
0.000279477
0.000279603
0.000279695
0.000279754
0.000279037
0.000279049
0.000279121
0.000279234
0.000279353
0.000279455
0.000279535
0.000279594
0.000279636
0.000279661
0.000279375
0.000279383
0.000279408
0.000279447
0.000279491
0.000279531
0.000279564
0.000279589
0.000279607
0.000279616
0.000279515
0.000279518
0.000279525
0.000279537
0.000279551
0.000279564
0.000279576
0.000279586
0.000279592
0.000279596
0.000279565
0.000279565
0.000279567
0.000279569
0.000279573
0.000279577
0.00027958
0.000279583
0.000279585
0.000279586
0.000279579
0.000279579
0.000279579
0.000279579
0.000279579
0.00027958
0.000279581
0.000279582
0.000279582
0.000279582
0.000279582
0.000279581
0.000279581
0.000279581
0.000279581
0.000279581
0.000279581
0.000279581
0.000279581
0.000279581
0.000279581
0.000279581
0.000279581
0.000279581
0.000279581
0.00027958
0.00027958
0.00027958
0.00027958
0.00027958
0.000279581
0.000279581
0.000279581
0.00027958
0.00027958
0.00027958
0.00027958
0.00027958
0.00027958
0.00027958
0.00027958
0.00027958
0.00027958
0.00027958
0.00027958
0.00027958
0.00027958
0.00027958
0.00027958
0.00027958
0.00027958
0.00027958
0.00027958
0.00027958
0.00027958
0.00027958
0.00027958
0.00027958
0.00027958
0.00027958
0.00027958
0.00027958
0.00027958
0.00027958
0.00027958
0.00027958
0.00027958
0.00027958
0.00027958
0.00027958
0.00027958
0.00027958
0.00027958
0.00027958
0.00027958
0.00027958
0.00027958
0.00027958
0.00027958
0.00027958
0.00027958
0.00027958
0.00027958
0.00027958
0.00027958
0.00027958
0.00027958
0.00027958
0.00027958
0.00027958
0.00027958
0.00027958
0.00027958
0.00027958
0.00027958
0.00027958
0.00027958
0.00027958
0.00027958
0.00027958
0.00027958
0.00027958
0.00027958
0.00027958
0.00027958
0.00027958
0.00027958
0.00027958
0.00027958
0.00027958
0.00027958
0.00027958
0.00027958
0.00027958
0.00027958
0.00027958
0.00027958
0.00027958
0.00027958
0.00027958
0.00027958
0.00027958
0.00027958
0.00027958
0.00027958
0.00027958
0.00027958
0.00027958
0.00027958
0.00027958
0.00027958
0.00027958
0.00027958
0.00027958
0.00027958
0.00027958
0.00027958
0.00027958
0.00027958
0.00027958
0.000280238
0.000280364
0.000280503
0.000280632
0.000280726
0.000280775
0.000280781
0.000280736
0.000280659
0.000280569
0.000279976
0.000280101
0.000280222
0.000280297
0.000280299
0.000280231
0.000280114
0.000279967
0.000279812
0.000279658
0.000279853
0.000279936
0.000280001
0.000280011
0.000279955
0.000279851
0.000279724
0.000279593
0.000279468
0.000279351
0.000279816
0.000279866
0.000279882
0.000279851
0.000279779
0.00027969
0.000279603
0.00027953
0.000279473
0.000279431
0.000279867
0.000279909
0.000279884
0.000279816
0.000279733
0.000279657
0.000279601
0.000279568
0.00027956
0.000279585
0.000280031
0.000280122
0.000280055
0.000279925
0.000279795
0.000279695
0.00027963
0.000279595
0.000279585
0.000279601
0.000280355
0.000280617
0.000280502
0.00028025
0.000280005
0.000279815
0.000279681
0.000279579
0.000279485
0.000279377
0.000280923
0.000281599
0.000281432
0.000280968
0.000280499
0.00028011
0.000279782
0.000279448
0.00027904
0.000278584
0.000281872
0.000283394
0.000283164
0.000282373
0.000281545
0.000280792
0.000280011
0.00027898
0.000277511
0.000275941
0.000282906
0.000286481
0.000286563
0.000285711
0.000284731
0.00028372
0.000282362
0.00027991
0.000275071
0.000265915
0.000279983
0.00027986
0.000279769
0.000279725
0.000279719
0.000279732
0.000279725
0.000279591
0.000279027
0.000277154
0.000279767
0.000279728
0.000279682
0.000279644
0.00027961
0.000279564
0.000279473
0.00027928
0.000278912
0.000278383
0.000279665
0.00027965
0.000279625
0.000279597
0.000279562
0.000279509
0.000279424
0.000279289
0.000279103
0.000278926
0.000279617
0.00027961
0.000279596
0.000279578
0.000279551
0.000279512
0.000279455
0.000279377
0.000279289
0.000279221
0.000279595
0.000279592
0.000279584
0.000279573
0.000279557
0.000279533
0.000279501
0.00027946
0.000279419
0.000279392
0.000279586
0.000279584
0.00027958
0.000279574
0.000279566
0.000279553
0.000279536
0.000279517
0.000279499
0.000279487
0.000279582
0.000279581
0.000279579
0.000279577
0.000279572
0.000279566
0.000279559
0.00027955
0.000279542
0.000279538
0.000279581
0.00027958
0.00027958
0.000279578
0.000279576
0.000279574
0.000279571
0.000279567
0.000279564
0.000279562
0.00027958
0.00027958
0.00027958
0.000279579
0.000279578
0.000279577
0.000279576
0.000279575
0.000279573
0.000279573
0.00027958
0.00027958
0.00027958
0.00027958
0.000279579
0.000279579
0.000279578
0.000279578
0.000279577
0.000279577
0.00027958
0.00027958
0.00027958
0.00027958
0.00027958
0.00027958
0.00027958
0.00027958
0.00027958
0.00027958
0.00027958
0.00027958
0.00027958
0.00027958
0.00027958
0.00027958
0.00027958
0.00027958
0.00027958
0.00027958
0.00027958
0.00027958
0.00027958
0.00027958
0.00027958
0.00027958
0.00027958
0.00027958
0.00027958
0.00027958
0.00027958
0.00027958
0.00027958
0.00027958
0.00027958
0.00027958
0.00027958
0.00027958
0.00027958
0.00027958
0.00027958
0.00027958
0.00027958
0.00027958
0.00027958
0.00027958
0.00027958
0.00027958
0.00027958
0.00027958
0.00027958
0.00027958
0.00027958
0.00027958
0.00027958
0.00027958
0.00027958
0.00027958
0.00027958
0.00027958
0.00027958
0.00027958
0.00027958
0.00027958
0.00027958
0.00027958
0.00027958
0.00027958
0.00027958
0.00027958
0.00027958
0.00027958
0.00027958
0.00027958
0.00027958
0.00027958
0.00027958
0.00027958
0.00027958
0.00027958
0.00027958
0.00027958
0.00027958
0.00027958
0.00027958
0.00027958
0.00027958
0.00027958
0.00027958
0.00027958
0.00027958
0.00027958
0.00027958
0.00027958
0.00027958
0.00027958
0.00027958
0.00027958
0.00027958
0.00027958
)
;

boundaryField
{
    defaultFaces
    {
        type            empty;
    }
}


// ************************************************************************* //
