/*--------------------------------*- C++ -*----------------------------------*\
  =========                 |
  \\      /  F ield         | OpenFOAM: The Open Source CFD Toolbox
   \\    /   O peration     | Website:  https://openfoam.org
    \\  /    A nd           | Version:  11
     \\/     M anipulation  |
\*---------------------------------------------------------------------------*/
FoamFile
{
    format      ascii;
    class       volScalarField;
    location    "5.5";
    object      nut;
}
// * * * * * * * * * * * * * * * * * * * * * * * * * * * * * * * * * * * * * //

dimensions      [0 2 -1 0 0 0 0];

internalField   nonuniform List<scalar> 
700
(
0.000140161
0.000140161
0.000140161
0.000140161
0.000140161
0.000140161
0.000140161
0.000140161
0.000140161
0.000140161
0.000140161
0.000140161
0.000140161
0.000140161
0.000140161
0.000140161
0.000140161
0.000140161
0.000140161
0.000140161
0.000140161
0.000140161
0.000140161
0.000140161
0.000140161
0.000140161
0.000140161
0.000140161
0.000140161
0.000140161
0.000140161
0.000140161
0.000140161
0.000140161
0.000140161
0.000140161
0.000140161
0.000140161
0.000140161
0.000140161
0.000140161
0.000140161
0.000140161
0.000140161
0.000140161
0.000140161
0.000140161
0.000140161
0.000140161
0.000140161
0.000140161
0.000140161
0.000140161
0.000140161
0.000140161
0.000140161
0.000140161
0.000140161
0.000140161
0.000140161
0.000140161
0.000140161
0.000140161
0.000140161
0.000140161
0.000140161
0.000140161
0.000140161
0.000140161
0.000140161
0.000140168
0.000140166
0.000140163
0.000140162
0.000140161
0.000140161
0.000140161
0.000140161
0.00014016
0.000140158
0.000140323
0.000140261
0.000140206
0.000140177
0.000140166
0.000140162
0.000140159
0.00014015
0.00014013
0.000140103
0.000142876
0.000141614
0.000140763
0.000140363
0.000140216
0.000140164
0.000140115
0.000140005
0.00013975
0.000139216
0.000155176
0.000147594
0.000143042
0.00014114
0.000140412
0.0001401
0.000139864
0.000139597
0.000139295
0.000139209
0.0001517
0.00014818
0.00014416
0.000141933
0.000140857
0.000140367
0.000140099
0.000139857
0.00013956
0.000139291
0.000146935
0.000146609
0.000144158
0.000142404
0.000141317
0.00014071
0.000140382
0.000140171
0.000139967
0.000139732
0.000141281
0.000143391
0.000142774
0.000142031
0.000141382
0.000140902
0.000140585
0.000140382
0.000140232
0.000140082
0.000135392
0.000139048
0.000140112
0.000140563
0.000140673
0.000140621
0.000140514
0.000140407
0.000140316
0.000140231
0.000130254
0.000134536
0.000136817
0.000138294
0.000139201
0.000139724
0.000140002
0.000140134
0.000140185
0.000140194
0.000126918
0.000131154
0.000134064
0.000136159
0.000137621
0.000138609
0.000139251
0.000139651
0.00013989
0.000140025
0.000126157
0.000130038
0.000133041
0.00013528
0.000136909
0.000138062
0.000138853
0.000139378
0.000139715
0.000139923
0.000128323
0.00013168
0.000134261
0.000136162
0.000137534
0.000138498
0.000139157
0.000139595
0.00013988
0.000140063
0.000133696
0.000135684
0.000137097
0.000138152
0.000138913
0.000139441
0.000139799
0.000140041
0.000140217
0.00014036
0.000138657
0.00013848
0.000138805
0.000139213
0.000139565
0.000139828
0.000140012
0.000140137
0.000140223
0.000140277
0.000139387
0.000139385
0.000139504
0.000139677
0.000139845
0.000139981
0.000140081
0.000140151
0.000140198
0.000140226
0.000139809
0.000139822
0.000139869
0.00013994
0.000140013
0.000140076
0.000140124
0.000140159
0.000140182
0.000140195
0.00014002
0.000140027
0.000140045
0.000140071
0.0001401
0.000140126
0.000140147
0.000140162
0.000140173
0.000140178
0.000140112
0.000140115
0.000140121
0.00014013
0.00014014
0.000140149
0.000140157
0.000140163
0.000140167
0.000140169
0.000140148
0.000140148
0.00014015
0.000140152
0.000140155
0.000140158
0.000140161
0.000140163
0.000140164
0.000140165
0.000140159
0.000140159
0.000140159
0.00014016
0.00014016
0.000140161
0.000140161
0.000140162
0.000140162
0.000140163
0.000140162
0.000140162
0.000140161
0.000140161
0.000140161
0.000140161
0.000140161
0.000140162
0.000140162
0.000140162
0.000140162
0.000140162
0.000140162
0.000140162
0.000140161
0.000140161
0.000140161
0.000140161
0.000140161
0.000140161
0.000140162
0.000140162
0.000140161
0.000140161
0.000140161
0.000140161
0.000140161
0.000140161
0.000140161
0.000140161
0.000140161
0.000140161
0.000140161
0.000140161
0.000140161
0.000140161
0.000140161
0.000140161
0.000140161
0.000140161
0.000140161
0.000140161
0.000140161
0.000140161
0.000140161
0.000140161
0.000140161
0.000140161
0.000140161
0.000140161
0.000140161
0.000140161
0.000140161
0.000140161
0.000140161
0.000140161
0.000140161
0.000140161
0.000140161
0.000140161
0.000140161
0.000140161
0.000140161
0.000140161
0.000140161
0.000140161
0.000140161
0.000140161
0.000140161
0.000140161
0.000140161
0.000140161
0.000140161
0.000140161
0.000140161
0.000140161
0.000140161
0.000140161
0.000140161
0.000140161
0.000140161
0.000140161
0.000140161
0.000140161
0.000140161
0.000140161
0.000140161
0.000140161
0.000140161
0.000140161
0.000140161
0.000140161
0.000140161
0.000140161
0.000140161
0.000140161
0.000140161
0.000140161
0.000140161
0.000140161
0.000140161
0.000140161
0.000140161
0.000140161
0.000140161
0.000140161
0.000140161
0.000140161
0.000140161
0.000140161
0.000140161
0.000140161
0.000140161
0.000140161
0.000140161
0.000140161
0.000140161
0.000140161
0.000140161
0.000140161
0.000140161
0.000140161
0.000140161
0.000140161
0.000140161
0.000140161
0.000140161
0.000140161
0.000140161
0.000140161
0.000140361
0.000140389
0.000140419
0.000140446
0.000140464
0.000140471
0.000140468
0.000140457
0.000140438
0.000140414
0.000140305
0.000140334
0.000140361
0.000140374
0.000140367
0.000140343
0.000140304
0.000140256
0.000140202
0.000140143
0.000140281
0.000140303
0.000140317
0.000140313
0.000140289
0.000140249
0.000140199
0.000140143
0.000140084
0.00014002
0.000140285
0.000140301
0.0001403
0.000140282
0.000140249
0.000140209
0.000140168
0.00014013
0.000140096
0.000140069
0.000140326
0.000140347
0.00014033
0.000140292
0.000140248
0.000140207
0.000140176
0.000140156
0.00014015
0.000140164
0.000140424
0.000140476
0.000140441
0.000140369
0.000140294
0.000140235
0.000140195
0.000140173
0.000140165
0.000140174
0.000140604
0.000140754
0.000140698
0.000140561
0.000140422
0.00014031
0.000140228
0.000140164
0.000140102
0.000140035
0.000140907
0.000141282
0.000141209
0.000140964
0.000140705
0.000140483
0.000140289
0.000140086
0.000139842
0.000139579
0.0001414
0.000142217
0.000142125
0.000141719
0.000141276
0.000140859
0.000140414
0.000139825
0.000139011
0.000138186
0.000141929
0.000143788
0.000143862
0.00014343
0.000142909
0.000142352
0.000141593
0.000140254
0.000137724
0.000133124
0.000140297
0.00014027
0.000140247
0.000140239
0.000140244
0.000140258
0.000140262
0.000140202
0.000139926
0.000138991
0.000140234
0.000140224
0.000140209
0.000140195
0.000140181
0.00014016
0.000140117
0.000140022
0.000139839
0.000139575
0.000140198
0.000140193
0.000140183
0.00014017
0.000140152
0.000140125
0.000140081
0.000140012
0.000139918
0.000139829
0.000140179
0.000140176
0.000140169
0.000140159
0.000140145
0.000140123
0.000140093
0.000140051
0.000140005
0.000139971
0.000140169
0.000140167
0.000140163
0.000140157
0.000140147
0.000140134
0.000140115
0.000140093
0.000140071
0.000140056
0.000140164
0.000140163
0.000140161
0.000140157
0.000140152
0.000140145
0.000140135
0.000140124
0.000140114
0.000140107
0.000140162
0.000140162
0.000140161
0.000140159
0.000140156
0.000140152
0.000140148
0.000140143
0.000140138
0.000140135
0.000140162
0.000140161
0.000140161
0.00014016
0.000140159
0.000140157
0.000140155
0.000140153
0.000140151
0.00014015
0.000140161
0.000140161
0.000140161
0.000140161
0.00014016
0.000140159
0.000140158
0.000140158
0.000140157
0.000140156
0.000140161
0.000140161
0.000140161
0.000140161
0.000140161
0.00014016
0.00014016
0.00014016
0.000140159
0.000140159
0.000140161
0.000140161
0.000140161
0.000140161
0.000140161
0.000140161
0.000140161
0.000140161
0.000140161
0.000140161
0.000140161
0.000140161
0.000140161
0.000140161
0.000140161
0.000140161
0.000140161
0.000140161
0.000140161
0.000140161
0.000140161
0.000140161
0.000140161
0.000140161
0.000140161
0.000140161
0.000140161
0.000140161
0.000140161
0.000140161
0.000140161
0.000140161
0.000140161
0.000140161
0.000140161
0.000140161
0.000140161
0.000140161
0.000140161
0.000140161
0.000140161
0.000140161
0.000140161
0.000140161
0.000140161
0.000140161
0.000140161
0.000140161
0.000140161
0.000140161
0.000140161
0.000140161
0.000140161
0.000140161
0.000140161
0.000140161
0.000140161
0.000140161
0.000140161
0.000140161
0.000140161
0.000140161
0.000140161
0.000140161
0.000140161
0.000140161
0.000140161
0.000140161
0.000140161
0.000140161
0.000140161
0.000140161
0.000140161
0.000140161
0.000140161
0.000140161
0.000140161
0.000140161
0.000140161
0.000140161
0.000140161
0.000140161
0.000140161
0.000140161
0.000140161
0.000140161
0.000140161
0.000140161
0.000140161
0.000140161
0.000140161
0.000140161
0.000140161
0.000140161
0.000140161
0.000140161
0.000140161
0.000140161
0.000140161
0.000140161
)
;

boundaryField
{
    defaultFaces
    {
        type            empty;
    }
}


// ************************************************************************* //
