/*--------------------------------*- C++ -*----------------------------------*\
  =========                 |
  \\      /  F ield         | OpenFOAM: The Open Source CFD Toolbox
   \\    /   O peration     | Website:  https://openfoam.org
    \\  /    A nd           | Version:  11
     \\/     M anipulation  |
\*---------------------------------------------------------------------------*/
FoamFile
{
    format      ascii;
    class       volScalarField;
    location    "10";
    object      epsilon;
}
// * * * * * * * * * * * * * * * * * * * * * * * * * * * * * * * * * * * * * //

dimensions      [0 2 -3 0 0 0 0];

internalField   nonuniform List<scalar> 
700
(
1.57471e-05
1.57471e-05
1.57471e-05
1.57471e-05
1.57471e-05
1.57471e-05
1.57471e-05
1.57471e-05
1.57471e-05
1.57471e-05
1.57471e-05
1.57471e-05
1.57471e-05
1.57471e-05
1.57471e-05
1.57471e-05
1.57471e-05
1.57471e-05
1.57471e-05
1.57471e-05
1.57471e-05
1.57471e-05
1.57471e-05
1.57471e-05
1.57471e-05
1.57471e-05
1.57471e-05
1.57471e-05
1.57471e-05
1.57471e-05
1.57471e-05
1.57471e-05
1.57471e-05
1.57471e-05
1.57471e-05
1.57471e-05
1.57471e-05
1.57471e-05
1.57471e-05
1.57471e-05
1.57471e-05
1.57471e-05
1.57471e-05
1.57471e-05
1.57471e-05
1.57471e-05
1.57471e-05
1.57471e-05
1.57471e-05
1.57471e-05
1.57471e-05
1.57471e-05
1.57471e-05
1.57471e-05
1.57471e-05
1.57471e-05
1.57471e-05
1.57471e-05
1.57471e-05
1.57471e-05
1.57472e-05
1.57472e-05
1.57471e-05
1.57471e-05
1.57471e-05
1.57471e-05
1.57471e-05
1.57471e-05
1.5747e-05
1.5747e-05
1.57496e-05
1.57489e-05
1.57482e-05
1.57476e-05
1.57473e-05
1.57471e-05
1.5747e-05
1.57468e-05
1.57465e-05
1.57462e-05
1.57844e-05
1.57735e-05
1.5762e-05
1.57541e-05
1.57497e-05
1.57474e-05
1.57454e-05
1.57428e-05
1.5739e-05
1.57349e-05
1.61861e-05
1.60175e-05
1.58843e-05
1.58062e-05
1.5767e-05
1.57466e-05
1.57305e-05
1.57084e-05
1.56711e-05
1.56058e-05
1.76792e-05
1.67876e-05
1.62162e-05
1.59426e-05
1.58134e-05
1.57453e-05
1.56971e-05
1.56532e-05
1.56106e-05
1.55959e-05
1.72512e-05
1.685e-05
1.63621e-05
1.6063e-05
1.58948e-05
1.58012e-05
1.57426e-05
1.56954e-05
1.56484e-05
1.5609e-05
1.66127e-05
1.66072e-05
1.6333e-05
1.61166e-05
1.5965e-05
1.58655e-05
1.58006e-05
1.57538e-05
1.57129e-05
1.56726e-05
1.58547e-05
1.6139e-05
1.60991e-05
1.60277e-05
1.59532e-05
1.58885e-05
1.58375e-05
1.57979e-05
1.57651e-05
1.5734e-05
1.50922e-05
1.55427e-05
1.56994e-05
1.57795e-05
1.58123e-05
1.58181e-05
1.58102e-05
1.57967e-05
1.57812e-05
1.57644e-05
1.44517e-05
1.49555e-05
1.52411e-05
1.54374e-05
1.55679e-05
1.56511e-05
1.57016e-05
1.57302e-05
1.57446e-05
1.57501e-05
1.40498e-05
1.45338e-05
1.48787e-05
1.51376e-05
1.53285e-05
1.54664e-05
1.55638e-05
1.56309e-05
1.5676e-05
1.57053e-05
1.39674e-05
1.44042e-05
1.47521e-05
1.50213e-05
1.52268e-05
1.53813e-05
1.54956e-05
1.55787e-05
1.5638e-05
1.56794e-05
1.42371e-05
1.46148e-05
1.49137e-05
1.5143e-05
1.53175e-05
1.54488e-05
1.55465e-05
1.56185e-05
1.56712e-05
1.57098e-05
1.48816e-05
1.51089e-05
1.52781e-05
1.54125e-05
1.55173e-05
1.55974e-05
1.56587e-05
1.57071e-05
1.57501e-05
1.58008e-05
1.54748e-05
1.54602e-05
1.55064e-05
1.55654e-05
1.56202e-05
1.56656e-05
1.57015e-05
1.57296e-05
1.57519e-05
1.57696e-05
1.5585e-05
1.55887e-05
1.56093e-05
1.56386e-05
1.56687e-05
1.56954e-05
1.57175e-05
1.5735e-05
1.57482e-05
1.57574e-05
1.56567e-05
1.56608e-05
1.56713e-05
1.56859e-05
1.57018e-05
1.57167e-05
1.57293e-05
1.57394e-05
1.5747e-05
1.5752e-05
1.56993e-05
1.57019e-05
1.57072e-05
1.57145e-05
1.57226e-05
1.57304e-05
1.57372e-05
1.57427e-05
1.57468e-05
1.57494e-05
1.57232e-05
1.57245e-05
1.57271e-05
1.57307e-05
1.57346e-05
1.57385e-05
1.5742e-05
1.57448e-05
1.57469e-05
1.57482e-05
1.57359e-05
1.57365e-05
1.57377e-05
1.57393e-05
1.57412e-05
1.5743e-05
1.57447e-05
1.5746e-05
1.5747e-05
1.57477e-05
1.57422e-05
1.57424e-05
1.5743e-05
1.57437e-05
1.57445e-05
1.57453e-05
1.57461e-05
1.57467e-05
1.57471e-05
1.57474e-05
1.57451e-05
1.57452e-05
1.57454e-05
1.57457e-05
1.57461e-05
1.57464e-05
1.57467e-05
1.5747e-05
1.57472e-05
1.57473e-05
1.57464e-05
1.57464e-05
1.57465e-05
1.57466e-05
1.57468e-05
1.57469e-05
1.5747e-05
1.57471e-05
1.57472e-05
1.57472e-05
1.57468e-05
1.57469e-05
1.57469e-05
1.57469e-05
1.5747e-05
1.5747e-05
1.57471e-05
1.57471e-05
1.57472e-05
1.57472e-05
1.57471e-05
1.57471e-05
1.57471e-05
1.57471e-05
1.57471e-05
1.57471e-05
1.57471e-05
1.57471e-05
1.57471e-05
1.57471e-05
1.57471e-05
1.57471e-05
1.57471e-05
1.57471e-05
1.57471e-05
1.57471e-05
1.57471e-05
1.57471e-05
1.57471e-05
1.57471e-05
1.57471e-05
1.57471e-05
1.57471e-05
1.57471e-05
1.57471e-05
1.57471e-05
1.57471e-05
1.57471e-05
1.57471e-05
1.57471e-05
1.57471e-05
1.57471e-05
1.57471e-05
1.57471e-05
1.57471e-05
1.57471e-05
1.57471e-05
1.57471e-05
1.57471e-05
1.57471e-05
1.57471e-05
1.57471e-05
1.57471e-05
1.57471e-05
1.57471e-05
1.57471e-05
1.57471e-05
1.57471e-05
1.57471e-05
1.57471e-05
1.57471e-05
1.57471e-05
1.57471e-05
1.57471e-05
1.57471e-05
1.57471e-05
1.57471e-05
1.57471e-05
1.57471e-05
1.57471e-05
1.57471e-05
1.57471e-05
1.57471e-05
1.57471e-05
1.57471e-05
1.57471e-05
1.57471e-05
1.57471e-05
1.57471e-05
1.57471e-05
1.57471e-05
1.57471e-05
1.57471e-05
1.57471e-05
1.57471e-05
1.57471e-05
1.57471e-05
1.57471e-05
1.57471e-05
1.57471e-05
1.57471e-05
1.57471e-05
1.57471e-05
1.57471e-05
1.57471e-05
1.57471e-05
1.57471e-05
1.57471e-05
1.57471e-05
1.57471e-05
1.57471e-05
1.57471e-05
1.57471e-05
1.57471e-05
1.57471e-05
1.57471e-05
1.57471e-05
1.57471e-05
1.57471e-05
1.57471e-05
1.5808e-05
1.58213e-05
1.58362e-05
1.58502e-05
1.58602e-05
1.5865e-05
1.58646e-05
1.58597e-05
1.58493e-05
1.5837e-05
1.57818e-05
1.57914e-05
1.58008e-05
1.58063e-05
1.5805e-05
1.5797e-05
1.57837e-05
1.5767e-05
1.57482e-05
1.57297e-05
1.57761e-05
1.57809e-05
1.57837e-05
1.57819e-05
1.57744e-05
1.57624e-05
1.57478e-05
1.5732e-05
1.57161e-05
1.5701e-05
1.57775e-05
1.57807e-05
1.57802e-05
1.5775e-05
1.5766e-05
1.57548e-05
1.57431e-05
1.57323e-05
1.57231e-05
1.57162e-05
1.57853e-05
1.57896e-05
1.57872e-05
1.57796e-05
1.57694e-05
1.5759e-05
1.57501e-05
1.57439e-05
1.57415e-05
1.57444e-05
1.58009e-05
1.58109e-05
1.58073e-05
1.57959e-05
1.5782e-05
1.57689e-05
1.57586e-05
1.57517e-05
1.57489e-05
1.57515e-05
1.58268e-05
1.58511e-05
1.58473e-05
1.58289e-05
1.58063e-05
1.57847e-05
1.57658e-05
1.57493e-05
1.57347e-05
1.57229e-05
1.58667e-05
1.59205e-05
1.59177e-05
1.58879e-05
1.585e-05
1.58115e-05
1.5773e-05
1.57321e-05
1.56887e-05
1.56501e-05
1.59269e-05
1.60347e-05
1.60329e-05
1.59858e-05
1.5925e-05
1.5859e-05
1.57836e-05
1.56897e-05
1.55765e-05
1.54766e-05
1.59891e-05
1.62173e-05
1.62362e-05
1.61862e-05
1.61141e-05
1.60271e-05
1.59091e-05
1.57248e-05
1.54187e-05
1.49026e-05
1.57789e-05
1.57722e-05
1.57689e-05
1.57687e-05
1.57711e-05
1.57753e-05
1.57787e-05
1.57749e-05
1.5746e-05
1.56418e-05
1.57619e-05
1.57616e-05
1.57603e-05
1.57593e-05
1.57587e-05
1.57577e-05
1.57544e-05
1.57454e-05
1.57261e-05
1.56969e-05
1.57545e-05
1.57549e-05
1.57541e-05
1.57528e-05
1.57511e-05
1.57486e-05
1.57443e-05
1.57372e-05
1.57272e-05
1.57174e-05
1.57508e-05
1.5751e-05
1.57503e-05
1.57491e-05
1.57474e-05
1.5745e-05
1.57415e-05
1.5737e-05
1.57318e-05
1.57279e-05
1.57489e-05
1.57489e-05
1.57484e-05
1.57474e-05
1.5746e-05
1.57442e-05
1.57419e-05
1.57391e-05
1.57365e-05
1.57347e-05
1.57479e-05
1.57479e-05
1.57475e-05
1.57468e-05
1.57459e-05
1.57446e-05
1.57432e-05
1.57416e-05
1.57402e-05
1.57393e-05
1.57475e-05
1.57474e-05
1.57471e-05
1.57467e-05
1.57461e-05
1.57454e-05
1.57445e-05
1.57437e-05
1.57429e-05
1.57424e-05
1.57473e-05
1.57472e-05
1.57471e-05
1.57468e-05
1.57465e-05
1.5746e-05
1.57456e-05
1.57451e-05
1.57447e-05
1.57444e-05
1.57472e-05
1.57472e-05
1.57471e-05
1.57469e-05
1.57467e-05
1.57465e-05
1.57462e-05
1.5746e-05
1.57458e-05
1.57456e-05
1.57472e-05
1.57471e-05
1.57471e-05
1.5747e-05
1.57469e-05
1.57467e-05
1.57466e-05
1.57464e-05
1.57463e-05
1.57462e-05
1.57471e-05
1.57471e-05
1.57471e-05
1.57471e-05
1.57471e-05
1.57471e-05
1.57471e-05
1.57471e-05
1.5747e-05
1.5747e-05
1.57471e-05
1.57471e-05
1.57471e-05
1.57471e-05
1.57471e-05
1.57471e-05
1.57471e-05
1.57471e-05
1.57471e-05
1.57471e-05
1.57471e-05
1.57471e-05
1.57471e-05
1.57471e-05
1.57471e-05
1.57471e-05
1.57471e-05
1.57471e-05
1.57471e-05
1.57471e-05
1.57471e-05
1.57471e-05
1.57471e-05
1.57471e-05
1.57471e-05
1.57471e-05
1.57471e-05
1.57471e-05
1.57471e-05
1.57471e-05
1.57471e-05
1.57471e-05
1.57471e-05
1.57471e-05
1.57471e-05
1.57471e-05
1.57471e-05
1.57471e-05
1.57471e-05
1.57471e-05
1.57471e-05
1.57471e-05
1.57471e-05
1.57471e-05
1.57471e-05
1.57471e-05
1.57471e-05
1.57471e-05
1.57471e-05
1.57471e-05
1.57471e-05
1.57471e-05
1.57471e-05
1.57471e-05
1.57471e-05
1.57471e-05
1.57471e-05
1.57471e-05
1.57471e-05
1.57471e-05
1.57471e-05
1.57471e-05
1.57471e-05
1.57471e-05
1.57471e-05
1.57471e-05
1.57471e-05
1.57471e-05
1.57471e-05
1.57471e-05
1.57471e-05
1.57471e-05
1.57471e-05
1.57471e-05
1.57471e-05
1.57471e-05
1.57471e-05
1.57471e-05
1.57471e-05
1.57471e-05
1.57471e-05
1.57471e-05
1.57471e-05
1.57471e-05
1.57471e-05
1.57471e-05
1.57471e-05
1.57471e-05
1.57471e-05
1.57471e-05
)
;

boundaryField
{
    defaultFaces
    {
        type            empty;
    }
}


// ************************************************************************* //
