/*--------------------------------*- C++ -*----------------------------------*\
  =========                 |
  \\      /  F ield         | OpenFOAM: The Open Source CFD Toolbox
   \\    /   O peration     | Website:  https://openfoam.org
    \\  /    A nd           | Version:  11
     \\/     M anipulation  |
\*---------------------------------------------------------------------------*/
FoamFile
{
    format      ascii;
    class       volScalarField;
    location    "10";
    object      k;
}
// * * * * * * * * * * * * * * * * * * * * * * * * * * * * * * * * * * * * * //

dimensions      [0 2 -2 0 0 0 0];

internalField   nonuniform List<scalar> 
2200
(
0.000152957
0.000152957
0.000152957
0.000152957
0.000152957
0.000152957
0.000152957
0.000152957
0.000152957
0.000152957
0.000152957
0.000152957
0.000152957
0.000152957
0.000152957
0.000152957
0.000152957
0.000152957
0.000152957
0.000152957
0.000152957
0.000152957
0.000152957
0.000152957
0.000152957
0.000152957
0.000152957
0.000152957
0.000152957
0.000152957
0.000152957
0.000152957
0.000152957
0.000152957
0.000152957
0.000152957
0.000152957
0.000152957
0.000152957
0.000152957
0.000152957
0.000152957
0.000152957
0.000152957
0.000152957
0.000152957
0.000152957
0.000152957
0.000152957
0.000152957
0.000152957
0.000152957
0.000152957
0.000152957
0.000152957
0.000152957
0.000152957
0.000152957
0.000152957
0.000152957
0.000152957
0.000152957
0.000152957
0.000152957
0.000152957
0.000152957
0.000152957
0.000152957
0.000152957
0.000152957
0.000152957
0.000152957
0.000152957
0.000152957
0.000152957
0.000152957
0.000152957
0.000152957
0.000152957
0.000152957
0.000152957
0.000152957
0.000152957
0.000152957
0.000152957
0.000152957
0.000152957
0.000152957
0.000152957
0.000152957
0.000152957
0.000152957
0.000152957
0.000152957
0.000152957
0.000152957
0.000152957
0.000152957
0.000152957
0.000152957
0.000152957
0.000152957
0.000152957
0.000152957
0.000152957
0.000152957
0.000152957
0.000152957
0.000152957
0.000152957
0.000152957
0.000152957
0.000152957
0.000152957
0.000152957
0.000152957
0.000152957
0.000152957
0.000152957
0.000152957
0.000152957
0.000152957
0.000152957
0.000152957
0.000152957
0.000152957
0.000152957
0.000152957
0.000152957
0.000152957
0.000152957
0.000152957
0.000152957
0.000152957
0.000152957
0.000152957
0.000152957
0.000152957
0.000152957
0.000152957
0.000152957
0.000152957
0.000152957
0.000152957
0.000152957
0.000152957
0.000152957
0.000152957
0.000152957
0.000152957
0.000152957
0.000152957
0.000152957
0.000152957
0.000152957
0.000152957
0.000152957
0.000152957
0.000152957
0.000152957
0.000152957
0.000152957
0.000152957
0.000152957
0.000152957
0.000152957
0.000152957
0.000152957
0.000152957
0.000152957
0.000152957
0.000152957
0.000152957
0.000152957
0.000152957
0.000152957
0.000152957
0.000152957
0.000152957
0.000152957
0.000152957
0.000152957
0.000152957
0.000152957
0.000152957
0.000152957
0.000152957
0.000152957
0.000152957
0.000152957
0.000152957
0.000152957
0.000152957
0.000152957
0.000152957
0.000152957
0.000152957
0.000152957
0.000152957
0.000152957
0.000152957
0.000152957
0.000152957
0.000152957
0.000152957
0.000152957
0.000152957
0.000152957
0.000152957
0.000152957
0.000152957
0.000152957
0.000152957
0.000152957
0.000152957
0.000152957
0.000152957
0.000152957
0.000152957
0.000152957
0.000152957
0.000152957
0.000152957
0.000152957
0.000152957
0.000152957
0.000152957
0.000152957
0.000152957
0.000152957
0.000152957
0.000152957
0.000152957
0.000152957
0.000152957
0.000152957
0.000152957
0.000152957
0.000152957
0.000152957
0.000152957
0.000152957
0.000152957
0.000152957
0.000152957
0.000152957
0.000152957
0.000152957
0.000152957
0.000152957
0.000152957
0.000152957
0.000152957
0.000152957
0.000152957
0.000152957
0.000152957
0.000152957
0.000152957
0.000152957
0.000152957
0.000152957
0.000152957
0.000152957
0.000152957
0.000152957
0.000152957
0.000152957
0.000152957
0.000152957
0.000152957
0.000152957
0.000152957
0.000152957
0.000152957
0.000152957
0.000152957
0.000152957
0.000152957
0.000152957
0.000152957
0.000152957
0.000152957
0.000152957
0.000152957
0.000152957
0.000152957
0.000152957
0.000152957
0.000152957
0.000152957
0.000152957
0.000152957
0.000152957
0.000152957
0.000152957
0.000152957
0.000152957
0.000152957
0.000152957
0.000152957
0.000152957
0.000152957
0.000152957
0.000152957
0.000152957
0.000152957
0.000152957
0.000152957
0.000152957
0.000152957
0.000152957
0.000152957
0.000152957
0.000152957
0.000152957
0.000152957
0.000152957
0.000152957
0.000152957
0.000152957
0.000152957
0.000152957
0.000152957
0.000152957
0.000152957
0.000152957
0.000152957
0.000152957
0.000152957
0.000152957
0.000152957
0.000152957
0.000152957
0.000152957
0.000152957
0.000152957
0.000152957
0.000152957
0.000152957
0.000152957
0.000152957
0.000152957
0.000152957
0.000152957
0.000152957
0.000152957
0.000152957
0.000152957
0.000152957
0.000152957
0.000152957
0.000152957
0.000152957
0.000152957
0.000152957
0.000152957
0.000152957
0.000152957
0.000152957
0.000152957
0.000152957
0.000152957
0.000152957
0.000152957
0.000152957
0.000152957
0.000152957
0.000152957
0.000152957
0.000152957
0.000152957
0.000152957
0.000152957
0.000152957
0.000152957
0.000152957
0.000152957
0.000152957
0.000152957
0.000152957
0.000152957
0.000152957
0.000152957
0.000152957
0.000152957
0.000152957
0.000152957
0.000152957
0.000152957
0.000152957
0.000152957
0.000152957
0.000152957
0.000152957
0.000152957
0.000152957
0.000152957
0.000152957
0.000152957
0.000152957
0.000152957
0.000152957
0.000152957
0.000152957
0.000152957
0.000152957
0.000152957
0.000152957
0.000152957
0.000152957
0.000152957
0.000152957
0.000152957
0.000152957
0.000152957
0.000152957
0.000152957
0.000152957
0.000152956
0.000152957
0.000152957
0.000152957
0.000152957
0.000152957
0.000152957
0.000152957
0.000152956
0.000152956
0.000152956
0.000152958
0.000152958
0.000152957
0.000152957
0.000152957
0.000152957
0.000152956
0.000152956
0.000152955
0.000152955
0.000152959
0.000152958
0.000152958
0.000152957
0.000152957
0.000152957
0.000152956
0.000152955
0.000152954
0.000152953
0.000152961
0.00015296
0.000152959
0.000152958
0.000152957
0.000152957
0.000152955
0.000152953
0.00015295
0.000152948
0.000152966
0.000152965
0.000152962
0.00015296
0.000152958
0.000152957
0.000152954
0.000152949
0.000152943
0.000152939
0.000152977
0.000152973
0.000152968
0.000152963
0.00015296
0.000152957
0.000152951
0.000152942
0.00015293
0.000152921
0.000152998
0.00015299
0.000152979
0.00015297
0.000152963
0.000152957
0.000152946
0.000152928
0.000152905
0.000152886
0.000153039
0.000153022
0.000153
0.000152982
0.000152969
0.000152958
0.000152939
0.000152905
0.00015286
0.000152825
0.000153113
0.000153081
0.000153038
0.000153003
0.000152981
0.000152961
0.000152927
0.000152866
0.000152783
0.000152717
0.000153246
0.000153184
0.000153103
0.00015304
0.000153001
0.000152967
0.000152911
0.000152806
0.000152657
0.000152535
0.000153474
0.000153358
0.000153212
0.0001531
0.000153034
0.000152981
0.000152891
0.000152716
0.00015246
0.000152238
0.000153854
0.000153642
0.000153384
0.000153194
0.000153086
0.000153006
0.00015287
0.000152593
0.000152163
0.000151766
0.000154466
0.000154085
0.000153643
0.000153332
0.000153163
0.00015305
0.000152858
0.000152438
0.000151737
0.000151034
0.000155424
0.000154748
0.000154015
0.000153524
0.000153273
0.000153124
0.000152869
0.000152267
0.000151162
0.000149916
0.000156885
0.000155696
0.000154517
0.000153774
0.00015342
0.000153236
0.00015293
0.000152124
0.000150446
0.000148215
0.000159064
0.000156977
0.000155146
0.000154076
0.000153601
0.000153398
0.000153077
0.000152094
0.000149679
0.000145605
0.00016227
0.000158582
0.000155863
0.000154404
0.000153806
0.000153613
0.00015335
0.000152325
0.000149148
0.000141493
0.000166962
0.000160353
0.000156568
0.000154717
0.000154015
0.000153871
0.000153775
0.00015301
0.000149615
0.000134696
0.000169847
0.000162756
0.000157759
0.000155337
0.000154363
0.000154168
0.000154323
0.000154493
0.000154347
0.0001522
0.000167006
0.000163413
0.000158999
0.000156323
0.000154916
0.000154349
0.0001543
0.000154515
0.00015477
0.000154168
0.000161221
0.000161219
0.000158674
0.000156698
0.000155356
0.00015457
0.00015422
0.000154175
0.000154304
0.000154257
0.000153813
0.000156633
0.000156324
0.00015571
0.000155065
0.000154527
0.000154158
0.000153964
0.000153919
0.000153923
0.000146209
0.000150657
0.000152263
0.000153124
0.00015352
0.000153648
0.000153647
0.000153607
0.000153578
0.000153575
0.000139814
0.000144757
0.000147604
0.000149593
0.000150944
0.000151832
0.000152397
0.000152747
0.000152961
0.000153096
0.000135825
0.000140544
0.000143939
0.00014652
0.000148451
0.000149871
0.000150897
0.000151624
0.000152131
0.000152481
0.000135028
0.000139271
0.000142676
0.00014534
0.0001474
0.000148975
0.000150161
0.000151042
0.000151687
0.000152153
0.000137724
0.000141391
0.000144317
0.000146586
0.000148338
0.000149678
0.000150692
0.000151449
0.000152011
0.000152428
0.000144101
0.000146317
0.00014799
0.000149338
0.000150405
0.000151233
0.000151867
0.000152358
0.000152771
0.000153198
0.000149968
0.000149841
0.000150318
0.000150928
0.000151502
0.000151982
0.000152363
0.000152656
0.000152881
0.000153056
0.000151125
0.000151172
0.000151395
0.000151708
0.000152031
0.000152323
0.000152564
0.000152752
0.000152894
0.000152994
0.000151898
0.000151946
0.000152063
0.000152227
0.000152404
0.000152571
0.000152714
0.000152828
0.000152914
0.000152973
0.000152373
0.000152404
0.000152466
0.000152551
0.000152645
0.000152736
0.000152817
0.000152882
0.000152931
0.000152964
0.000152651
0.000152667
0.000152699
0.000152742
0.00015279
0.000152838
0.000152881
0.000152916
0.000152943
0.00015296
0.000152804
0.000152813
0.000152828
0.000152849
0.000152873
0.000152897
0.000152919
0.000152936
0.00015295
0.000152959
0.000152885
0.000152889
0.000152896
0.000152906
0.000152917
0.000152929
0.000152939
0.000152948
0.000152954
0.000152958
0.000152925
0.000152927
0.00015293
0.000152935
0.00015294
0.000152945
0.000152949
0.000152953
0.000152956
0.000152958
0.000152944
0.000152945
0.000152946
0.000152948
0.00015295
0.000152952
0.000152954
0.000152956
0.000152957
0.000152958
0.000152952
0.000152953
0.000152953
0.000152954
0.000152955
0.000152955
0.000152956
0.000152957
0.000152957
0.000152957
0.000152956
0.000152956
0.000152956
0.000152956
0.000152956
0.000152957
0.000152957
0.000152957
0.000152957
0.000152957
0.000152957
0.000152957
0.000152957
0.000152957
0.000152957
0.000152957
0.000152957
0.000152957
0.000152957
0.000152957
0.000152957
0.000152957
0.000152957
0.000152957
0.000152957
0.000152957
0.000152957
0.000152957
0.000152957
0.000152957
0.000152957
0.000152957
0.000152957
0.000152957
0.000152957
0.000152957
0.000152957
0.000152957
0.000152957
0.000152957
0.000152957
0.000152957
0.000152957
0.000152957
0.000152957
0.000152957
0.000152957
0.000152957
0.000152957
0.000152957
0.000152957
0.000152957
0.000152957
0.000152957
0.000152957
0.000152957
0.000152957
0.000152957
0.000152957
0.000152957
0.000152957
0.000152957
0.000152957
0.000152957
0.000152957
0.000152957
0.000152957
0.000152957
0.000152957
0.000152957
0.000152957
0.000152957
0.000152957
0.000152957
0.000152957
0.000152957
0.000152957
0.000152957
0.000152957
0.000152957
0.000152957
0.000152957
0.000152957
0.000152957
0.000152957
0.000152957
0.000152957
0.000152957
0.000152957
0.000152957
0.000152957
0.000152957
0.000152957
0.000152957
0.000152957
0.000152957
0.000152957
0.000152957
0.000152957
0.000152957
0.000152957
0.000152957
0.000152957
0.000152957
0.000152957
0.000152957
0.000152957
0.000152957
0.000152957
0.000152957
0.000152957
0.000152957
0.000152957
0.000152957
0.000152957
0.000152957
0.000152957
0.000152957
0.000152957
0.000152957
0.000152957
0.000152957
0.000152957
0.000152957
0.000152957
0.000152957
0.000152957
0.000152957
0.000152957
0.000152957
0.000152957
0.000152957
0.000152957
0.000152957
0.000152957
0.000152957
0.000152957
0.000152957
0.000152957
0.000152957
0.000152957
0.000152957
0.000152957
0.000152957
0.000152957
0.000152957
0.000152957
0.000152957
0.000152957
0.000152957
0.000152957
0.000152957
0.000152957
0.000152957
0.000152957
0.000152957
0.000152957
0.000152957
0.000152957
0.000152957
0.000152957
0.000152957
0.000152957
0.000152957
0.000152957
0.000152957
0.000152957
0.000152957
0.000152957
0.000152957
0.000152957
0.000152957
0.000152957
0.000152957
0.000152957
0.000152957
0.000152957
0.000152957
0.000152957
0.000152957
0.000152957
0.000152957
0.000152957
0.000152957
0.000152957
0.000152957
0.000152957
0.000152957
0.000152957
0.000152957
0.000152957
0.000152957
0.000152957
0.000152957
0.000152957
0.000152957
0.000152957
0.000152957
0.000152957
0.000152957
0.000152957
0.000152957
0.000152957
0.000152957
0.000152957
0.000152957
0.000152957
0.000152957
0.000152957
0.000152957
0.000152957
0.000152957
0.000152957
0.000152957
0.000152957
0.000152957
0.000152957
0.000152957
0.000152957
0.000152957
0.000152957
0.000152957
0.000152957
0.000152957
0.000152957
0.000152957
0.000152957
0.000152957
0.000152957
0.000152957
0.000152957
0.000152957
0.000152957
0.000152957
0.000152957
0.000152957
0.000152957
0.000152957
0.000152957
0.000152957
0.000152957
0.000152957
0.000152957
0.000152957
0.000152957
0.000152957
0.000152957
0.000152957
0.000152957
0.000152957
0.000152957
0.000152957
0.000152957
0.000152957
0.000152957
0.000152957
0.000152957
0.000152957
0.000152957
0.000152957
0.000152957
0.000152957
0.000152957
0.000152957
0.000152957
0.000152957
0.000152957
0.000152957
0.000152957
0.000152957
0.000152957
0.000152957
0.000152957
0.000152957
0.000152957
0.000152957
0.000152957
0.000152957
0.000152957
0.000152957
0.000152957
0.000152957
0.000152957
0.000152957
0.000152957
0.000152957
0.000152957
0.000152957
0.000152957
0.000152957
0.000152957
0.000152957
0.000152957
0.000152957
0.000152957
0.000152957
0.000152957
0.000152957
0.000152957
0.000152957
0.000152957
0.000152957
0.000152957
0.000152957
0.000152957
0.000152957
0.000152957
0.000152957
0.000152957
0.000152957
0.000152957
0.000152957
0.000152957
0.000152957
0.000152957
0.000152957
0.000152957
0.000152957
0.000152957
0.000152957
0.000152957
0.000152957
0.000152957
0.000152957
0.000152957
0.000152957
0.000152957
0.000152957
0.000152957
0.000152957
0.000152957
0.000152957
0.000152957
0.000152957
0.000152957
0.000152957
0.000152957
0.000152957
0.000152957
0.000152957
0.000152957
0.000152957
0.000152957
0.000152957
0.000152957
0.000152957
0.000152957
0.000152957
0.000152957
0.000152957
0.000152957
0.000152957
0.000152957
0.000152957
0.000152957
0.000152957
0.000152957
0.000152957
0.000152957
0.000152957
0.000152957
0.000152957
0.000152957
0.000152957
0.000152957
0.000152957
0.000152957
0.000152957
0.000152957
0.000152957
0.000152957
0.000152957
0.000152957
0.000152957
0.000152957
0.000152957
0.000152957
0.000152957
0.000152957
0.000152957
0.000152957
0.000152957
0.000152957
0.000152957
0.000152957
0.000152957
0.000152957
0.000152957
0.000152957
0.000152957
0.000152957
0.000152957
0.000152957
0.000152957
0.000152957
0.000152957
0.000152957
0.000152957
0.000152957
0.000152957
0.000152957
0.000152957
0.000152957
0.000152957
0.000152957
0.000152957
0.000152957
0.000152957
0.000152957
0.000152957
0.000152957
0.000152957
0.000152957
0.000152957
0.000152957
0.000152957
0.000152957
0.000152957
0.000152957
0.000152957
0.000152957
0.000152957
0.000152957
0.000152957
0.000152957
0.000152957
0.000152957
0.000152957
0.000152957
0.000152957
0.000152957
0.000152957
0.000152957
0.000152957
0.000152957
0.000152957
0.000152957
0.000152957
0.000152957
0.000152957
0.000152957
0.000152957
0.000152957
0.000152957
0.000152957
0.000152957
0.000152957
0.000152957
0.000152957
0.000152957
0.000152957
0.000152957
0.000152957
0.000152957
0.000152957
0.000152957
0.000152957
0.000152957
0.000152957
0.000152957
0.000152957
0.000152957
0.000152957
0.000152957
0.000152957
0.000152957
0.000152957
0.000152957
0.000152957
0.000152957
0.000152957
0.000152957
0.000152957
0.000152957
0.000152957
0.000152957
0.000152957
0.000152957
0.000152957
0.000152957
0.000152957
0.000152957
0.000152957
0.000152957
0.000152957
0.000152957
0.000152957
0.000152957
0.000152957
0.000152957
0.000152957
0.000152957
0.000152957
0.000152957
0.000152957
0.000152957
0.000152957
0.000152957
0.000152957
0.000152957
0.000152957
0.000152957
0.000152957
0.000152957
0.000152957
0.000152957
0.000152957
0.000152957
0.000152957
0.000152957
0.000152957
0.000152957
0.000152957
0.000152957
0.000152957
0.000152957
0.000152957
0.000152957
0.000152957
0.000152957
0.000152957
0.000152957
0.000152957
0.000152957
0.000152957
0.000152957
0.000152957
0.000152957
0.000152957
0.000152957
0.000152957
0.000152957
0.000152957
0.000152957
0.000152957
0.000152957
0.000152957
0.000152957
0.000152957
0.000152957
0.000152957
0.000152957
0.000152957
0.000152957
0.000152957
0.000152957
0.000152957
0.000152957
0.000152957
0.000152957
0.000152957
0.000152957
0.000152957
0.000152957
0.000152957
0.000152957
0.000152957
0.000152957
0.000152957
0.000152957
0.000152957
0.000152957
0.000152957
0.000152957
0.000152957
0.000152957
0.000152957
0.000152957
0.000152957
0.000152957
0.000152957
0.000152957
0.000152957
0.000152957
0.000152957
0.000152957
0.000152957
0.000152957
0.000152957
0.000152957
0.000152957
0.000152957
0.000152957
0.000152957
0.000152957
0.000152957
0.000152957
0.000152957
0.000152957
0.000152957
0.000152957
0.000152957
0.000152957
0.000152957
0.000152957
0.000152957
0.000152957
0.000152957
0.000152957
0.000152957
0.000153349
0.000153424
0.000153506
0.000153577
0.000153622
0.000153636
0.00015362
0.00015358
0.000153509
0.000153427
0.000153216
0.000153268
0.000153315
0.000153329
0.000153296
0.000153216
0.000153101
0.000152961
0.000152804
0.000152643
0.000153213
0.000153233
0.000153234
0.000153197
0.000153117
0.000153002
0.000152864
0.000152713
0.000152556
0.0001524
0.000153267
0.000153282
0.000153261
0.000153201
0.000153109
0.000152998
0.000152882
0.000152773
0.00015268
0.000152615
0.000153375
0.000153413
0.000153383
0.000153304
0.0001532
0.000153095
0.000153009
0.000152959
0.000152962
0.000153042
0.000153554
0.000153659
0.000153626
0.000153513
0.000153373
0.000153247
0.000153165
0.000153148
0.000153218
0.000153401
0.000153829
0.000154087
0.000154061
0.000153883
0.000153663
0.000153467
0.000153334
0.000153294
0.000153377
0.000153625
0.000154237
0.000154796
0.00015479
0.000154508
0.000154143
0.000153796
0.000153507
0.000153306
0.000153258
0.000153509
0.000154837
0.000155935
0.000155949
0.000155504
0.000154919
0.000154304
0.000153655
0.000152931
0.000152185
0.000151824
0.00015545
0.000157726
0.000157949
0.000157479
0.000156783
0.000155952
0.00015484
0.000153089
0.000150058
0.000144605
0.000153162
0.000153149
0.000153156
0.000153183
0.000153229
0.000153286
0.000153332
0.000153306
0.000153034
0.000152025
0.000153053
0.000153072
0.00015308
0.000153088
0.000153095
0.000153096
0.000153072
0.000152991
0.000152808
0.000152528
0.000153007
0.000153022
0.000153025
0.000153021
0.000153012
0.000152992
0.000152955
0.000152889
0.000152794
0.0001527
0.000152983
0.000152991
0.000152989
0.000152982
0.000152968
0.000152946
0.000152914
0.000152871
0.000152822
0.000152784
0.00015297
0.000152973
0.00015297
0.000152962
0.000152949
0.000152931
0.000152909
0.000152882
0.000152856
0.000152839
0.000152963
0.000152964
0.00015296
0.000152954
0.000152944
0.000152932
0.000152917
0.000152901
0.000152887
0.000152879
0.00015296
0.000152959
0.000152957
0.000152952
0.000152946
0.000152938
0.000152929
0.00015292
0.000152912
0.000152907
0.000152958
0.000152958
0.000152956
0.000152953
0.000152949
0.000152944
0.000152939
0.000152934
0.00015293
0.000152927
0.000152958
0.000152957
0.000152956
0.000152954
0.000152952
0.000152949
0.000152946
0.000152944
0.000152941
0.00015294
0.000152957
0.000152957
0.000152956
0.000152955
0.000152954
0.000152953
0.000152951
0.00015295
0.000152949
0.000152948
0.000152957
0.000152957
0.000152957
0.000152956
0.000152956
0.000152955
0.000152954
0.000152953
0.000152953
0.000152952
0.000152957
0.000152957
0.000152957
0.000152957
0.000152957
0.000152956
0.000152956
0.000152955
0.000152955
0.000152954
0.000152957
0.000152957
0.000152957
0.000152957
0.000152957
0.000152957
0.000152957
0.000152956
0.000152956
0.000152956
0.000152957
0.000152957
0.000152957
0.000152957
0.000152957
0.000152957
0.000152957
0.000152957
0.000152957
0.000152956
0.000152957
0.000152957
0.000152957
0.000152957
0.000152957
0.000152957
0.000152957
0.000152957
0.000152957
0.000152957
0.000152957
0.000152957
0.000152957
0.000152957
0.000152957
0.000152957
0.000152957
0.000152957
0.000152957
0.000152957
0.000152957
0.000152957
0.000152957
0.000152957
0.000152957
0.000152957
0.000152957
0.000152957
0.000152957
0.000152957
0.000152957
0.000152957
0.000152957
0.000152957
0.000152957
0.000152957
0.000152957
0.000152957
0.000152957
0.000152957
0.000152957
0.000152957
0.000152957
0.000152957
0.000152957
0.000152957
0.000152957
0.000152957
0.000152957
0.000152957
0.000152957
0.000152957
0.000152957
0.000152957
0.000152957
0.000152957
0.000152957
0.000152957
0.000152957
0.000152957
0.000152957
0.000152957
0.000152957
0.000152957
0.000152957
0.000152957
0.000152957
0.000152957
0.000152957
0.000152957
0.000152957
0.000152957
0.000152957
0.000152957
0.000152957
0.000152957
0.000152957
0.000152957
0.000152957
0.000152957
0.000152957
0.000152957
0.000152957
0.000152957
0.000152957
0.000152957
0.000152957
0.000152957
0.000152957
0.000152957
0.000152957
0.000152957
0.000152957
0.000152957
0.000152957
0.000152957
0.000152957
0.000152957
0.000152957
0.000152957
0.000152957
0.000152957
0.000152957
0.000152957
0.000152957
0.000152957
0.000152957
0.000152957
0.000152957
0.000152957
0.000152957
0.000152957
0.000152957
0.000152957
0.000152957
0.000152957
0.000152957
0.000152957
0.000152957
0.000152957
0.000152957
0.000152957
0.000152957
0.000152957
0.000152957
0.000152957
0.000152957
0.000152957
0.000152957
0.000152957
0.000152957
0.000152957
0.000152957
0.000152957
0.000152957
0.000152957
0.000152957
0.000152957
0.000152957
0.000152957
0.000152957
0.000152957
0.000152957
0.000152957
0.000152957
0.000152957
0.000152957
0.000152957
0.000152957
0.000152957
0.000152957
0.000152957
0.000152957
0.000152957
0.000152957
0.000152957
0.000152957
0.000152957
0.000152957
0.000152957
0.000152957
0.000152957
0.000152957
0.000152957
0.000152957
0.000152957
0.000152957
0.000152957
0.000152957
0.000152957
0.000152957
0.000152957
0.000152957
0.000152957
0.000152957
0.000152957
0.000152957
0.000152957
0.000152957
0.000152957
0.000152957
0.000152957
0.000152957
0.000152957
0.000152957
0.000152957
0.000152957
0.000152957
0.000152957
0.000152957
0.000152957
0.000152957
0.000152957
0.000152957
0.000152957
0.000152957
0.000152957
0.000152957
0.000152957
0.000152957
0.000152957
0.000152957
0.000152957
0.000152957
0.000152957
0.000152957
0.000152957
0.000152957
0.000152957
0.000152957
0.000152957
0.000152957
0.000152957
0.000152957
0.000152957
0.000152957
0.000152957
0.000152957
0.000152957
0.000152957
0.000152957
0.000152957
0.000152957
0.000152957
0.000152957
0.000152957
0.000152957
0.000152957
0.000152957
0.000152957
0.000152957
0.000152957
0.000152957
0.000152957
0.000152957
0.000152957
0.000152957
0.000152957
0.000152957
0.000152957
0.000152957
0.000152957
0.000152957
0.000152957
0.000152957
0.000152957
0.000152957
0.000152957
0.000152957
0.000152957
0.000152957
0.000152957
0.000152957
0.000152957
0.000152957
0.000152957
0.000152957
0.000152957
0.000152957
0.000152957
0.000152957
0.000152957
0.000152957
0.000152957
0.000152957
0.000152957
0.000152957
0.000152957
0.000152957
0.000152957
0.000152957
0.000152957
0.000152957
0.000152957
0.000152957
0.000152957
0.000152957
0.000152957
0.000152957
0.000152957
0.000152957
0.000152957
0.000152957
0.000152957
0.000152957
0.000152957
0.000152957
0.000152957
0.000152957
0.000152957
0.000152957
0.000152957
0.000152957
0.000152957
0.000152957
0.000152957
0.000152957
0.000152957
0.000152957
0.000152957
0.000152957
0.000152957
0.000152957
0.000152957
0.000152957
0.000152957
0.000152957
0.000152957
0.000152957
0.000152957
0.000152957
0.000152957
0.000152957
0.000152957
0.000152957
0.000152957
0.000152957
0.000152957
0.000152957
0.000152957
0.000152957
0.000152957
0.000152957
0.000152957
0.000152957
0.000152957
0.000152957
0.000152957
0.000152957
0.000152957
0.000152957
0.000152957
0.000152957
0.000152957
0.000152957
0.000152957
0.000152957
0.000152957
0.000152957
0.000152957
0.000152957
0.000152957
0.000152957
0.000152957
0.000152957
0.000152957
0.000152957
0.000152957
0.000152957
0.000152957
0.000152957
0.000152957
0.000152957
0.000152957
0.000152957
0.000152957
0.000152957
0.000152957
0.000152957
0.000152957
0.000152957
0.000152957
0.000152957
0.000152957
0.000152957
0.000152957
0.000152957
0.000152957
0.000152957
0.000152957
0.000152957
0.000152957
0.000152957
0.000152957
0.000152957
0.000152957
0.000152957
0.000152957
0.000152957
0.000152957
0.000152957
0.000152957
0.000152957
0.000152957
0.000152957
0.000152957
0.000152957
0.000152957
0.000152957
0.000152957
0.000152957
0.000152957
0.000152957
0.000152957
0.000152957
0.000152957
0.000152957
0.000152957
0.000152957
0.000152957
0.000152957
0.000152957
0.000152957
0.000152957
0.000152957
0.000152957
0.000152957
0.000152957
0.000152957
0.000152957
0.000152957
0.000152957
0.000152957
0.000152957
0.000152957
0.000152957
0.000152957
0.000152957
0.000152957
0.000152957
0.000152957
0.000152957
0.000152957
0.000152957
0.000152957
0.000152957
0.000152957
0.000152957
0.000152957
0.000152957
0.000152957
0.000152957
0.000152957
0.000152957
0.000152957
0.000152957
0.000152957
0.000152957
0.000152957
0.000152957
0.000152957
0.000152957
0.000152957
0.000152957
0.000152957
0.000152957
0.000152957
0.000152957
0.000152957
0.000152957
0.000152957
0.000152957
0.000152957
0.000152957
0.000152957
0.000152957
0.000152957
0.000152957
0.000152957
0.000152957
0.000152957
0.000152957
0.000152957
0.000152957
0.000152957
0.000152957
0.000152957
0.000152957
0.000152957
0.000152957
0.000152957
0.000152957
0.000152957
0.000152957
0.000152957
0.000152957
0.000152957
0.000152957
0.000152957
0.000152957
0.000152957
0.000152957
0.000152957
0.000152957
0.000152957
0.000152957
0.000152957
0.000152957
0.000152957
0.000152957
0.000152957
0.000152957
0.000152957
0.000152957
0.000152957
0.000152957
0.000152957
0.000152957
0.000152957
0.000152957
0.000152957
0.000152957
0.000152957
0.000152957
0.000152957
0.000152957
0.000152957
0.000152957
0.000152957
0.000152957
0.000152957
0.000152957
0.000152957
0.000152957
0.000152957
0.000152957
0.000152957
0.000152957
0.000152957
0.000152957
0.000152957
0.000152957
0.000152957
0.000152957
0.000152957
0.000152957
0.000152957
0.000152957
0.000152957
0.000152957
0.000152957
0.000152957
0.000152957
0.000152957
0.000152957
0.000152957
0.000152957
0.000152957
0.000152957
0.000152957
0.000152957
0.000152957
0.000152957
0.000152957
0.000152957
0.000152957
0.000152957
0.000152957
0.000152957
0.000152957
0.000152957
0.000152957
0.000152957
0.000152957
0.000152957
0.000152957
0.000152957
0.000152957
0.000152957
0.000152956
)
;

boundaryField
{
    defaultFaces
    {
        type            empty;
    }
}


// ************************************************************************* //
