/*--------------------------------*- C++ -*----------------------------------*\
  =========                 |
  \\      /  F ield         | OpenFOAM: The Open Source CFD Toolbox
   \\    /   O peration     | Website:  https://openfoam.org
    \\  /    A nd           | Version:  11
     \\/     M anipulation  |
\*---------------------------------------------------------------------------*/
FoamFile
{
    format      ascii;
    class       volScalarField;
    location    "10";
    object      k;
}
// * * * * * * * * * * * * * * * * * * * * * * * * * * * * * * * * * * * * * //

dimensions      [0 2 -2 0 0 0 0];

internalField   nonuniform List<scalar> 
700
(
0.000152956
0.000152956
0.000152956
0.000152956
0.000152956
0.000152956
0.000152956
0.000152956
0.000152956
0.000152956
0.000152956
0.000152956
0.000152956
0.000152956
0.000152956
0.000152956
0.000152956
0.000152956
0.000152956
0.000152956
0.000152956
0.000152956
0.000152956
0.000152956
0.000152956
0.000152956
0.000152956
0.000152956
0.000152956
0.000152956
0.000152956
0.000152956
0.000152956
0.000152956
0.000152956
0.000152956
0.000152956
0.000152956
0.000152956
0.000152956
0.000152956
0.000152956
0.000152956
0.000152956
0.000152956
0.000152956
0.000152956
0.000152956
0.000152956
0.000152956
0.000152957
0.000152957
0.000152957
0.000152956
0.000152956
0.000152956
0.000152956
0.000152956
0.000152956
0.000152956
0.000152958
0.000152958
0.000152957
0.000152957
0.000152957
0.000152957
0.000152956
0.000152956
0.000152956
0.000152956
0.000152988
0.00015298
0.000152971
0.000152964
0.00015296
0.000152957
0.000152955
0.000152952
0.000152949
0.000152946
0.000153391
0.000153273
0.000153142
0.000153047
0.000152992
0.00015296
0.000152935
0.000152903
0.00015286
0.000152817
0.000157666
0.000155947
0.000154537
0.00015367
0.000153207
0.000152954
0.000152757
0.000152509
0.000152119
0.000151469
0.000172468
0.000163693
0.000157971
0.000155139
0.000153738
0.000152971
0.000152431
0.000151956
0.000151512
0.000151354
0.000168208
0.000164285
0.000159441
0.000156396
0.000154623
0.000153597
0.000152937
0.000152413
0.00015191
0.000151496
0.000161719
0.000161734
0.000159067
0.000156911
0.000155354
0.000154296
0.00015358
0.000153053
0.000152598
0.000152162
0.000153996
0.000156871
0.00015656
0.0001559
0.000155173
0.000154516
0.000153976
0.000153542
0.000153174
0.000152826
0.00014627
0.000150748
0.00015237
0.000153232
0.000153611
0.000153704
0.000153643
0.000153509
0.000153344
0.000153159
0.000139833
0.000144787
0.000147643
0.000149637
0.000150988
0.00015187
0.00015242
0.000152742
0.000152911
0.000152981
0.000135832
0.000140553
0.000143952
0.000146534
0.000148466
0.000149886
0.000150908
0.000151628
0.000152122
0.000152453
0.000135031
0.000139274
0.00014268
0.000145344
0.000147404
0.000148978
0.000150163
0.000151042
0.000151683
0.000152142
0.000137725
0.000141392
0.000144318
0.000146587
0.000148339
0.00014968
0.000150696
0.000151462
0.000152041
0.000152487
0.000144101
0.000146318
0.00014799
0.000149339
0.000150409
0.000151245
0.000151901
0.000152436
0.000152914
0.000153394
0.000149969
0.000149842
0.000150318
0.000150929
0.000151503
0.000151988
0.00015238
0.000152696
0.000152956
0.00015316
0.000151126
0.000151173
0.000151395
0.000151708
0.000152032
0.000152324
0.000152569
0.000152767
0.000152922
0.000153035
0.000151899
0.000151947
0.000152064
0.000152227
0.000152404
0.000152571
0.000152715
0.000152832
0.000152922
0.000152984
0.000152375
0.000152405
0.000152467
0.000152551
0.000152645
0.000152737
0.000152817
0.000152883
0.000152933
0.000152967
0.000152653
0.000152669
0.0001527
0.000152743
0.000152792
0.000152839
0.000152882
0.000152917
0.000152943
0.000152961
0.000152806
0.000152815
0.00015283
0.000152851
0.000152875
0.000152898
0.00015292
0.000152937
0.000152951
0.00015296
0.000152887
0.000152891
0.000152898
0.000152908
0.000152919
0.00015293
0.000152941
0.000152949
0.000152955
0.000152959
0.000152927
0.000152929
0.000152932
0.000152936
0.000152941
0.000152946
0.000152951
0.000152955
0.000152958
0.000152959
0.000152945
0.000152946
0.000152947
0.000152949
0.000152951
0.000152953
0.000152955
0.000152957
0.000152958
0.000152959
0.000152952
0.000152953
0.000152953
0.000152954
0.000152955
0.000152956
0.000152957
0.000152958
0.000152958
0.000152958
0.000152957
0.000152957
0.000152957
0.000152957
0.000152958
0.000152958
0.000152958
0.000152958
0.000152958
0.000152958
0.000152958
0.000152958
0.000152958
0.000152958
0.000152958
0.000152958
0.000152958
0.000152958
0.000152958
0.000152958
0.000152958
0.000152958
0.000152958
0.000152958
0.000152958
0.000152958
0.000152958
0.000152958
0.000152958
0.000152958
0.000152958
0.000152958
0.000152958
0.000152958
0.000152958
0.000152958
0.000152958
0.000152958
0.000152958
0.000152958
0.000152958
0.000152958
0.000152958
0.000152958
0.000152958
0.000152958
0.000152958
0.000152958
0.000152958
0.000152958
0.000152958
0.000152958
0.000152958
0.000152958
0.000152958
0.000152958
0.000152958
0.000152958
0.000152958
0.000152958
0.000152958
0.000152958
0.000152958
0.000152958
0.000152958
0.000152958
0.000152958
0.000152958
0.000152958
0.000152958
0.000152958
0.000152958
0.000152958
0.000152958
0.000152958
0.000152958
0.000152958
0.000152958
0.000152958
0.000152958
0.000152958
0.000152958
0.000152958
0.000152958
0.000152958
0.000152958
0.000152958
0.000152958
0.000152958
0.000152958
0.000152958
0.000152958
0.000152958
0.000152958
0.000152958
0.000152958
0.000152958
0.000152958
0.000152958
0.000152958
0.000153496
0.000153588
0.000153684
0.000153766
0.000153818
0.000153836
0.00015382
0.000153777
0.000153703
0.000153616
0.000153321
0.000153406
0.00015348
0.000153509
0.000153476
0.000153386
0.000153253
0.000153091
0.00015291
0.000152725
0.000153267
0.000153318
0.000153344
0.000153315
0.000153224
0.000153086
0.000152921
0.000152744
0.000152565
0.000152391
0.000153289
0.00015332
0.000153311
0.00015325
0.000153145
0.000153016
0.000152882
0.000152758
0.000152653
0.000152578
0.000153381
0.000153425
0.000153397
0.000153314
0.000153201
0.000153084
0.000152982
0.000152911
0.000152883
0.000152918
0.000153555
0.000153661
0.000153626
0.000153507
0.000153356
0.000153212
0.000153093
0.000153013
0.00015298
0.000153012
0.000153828
0.000154085
0.000154055
0.000153869
0.000153629
0.000153392
0.000153176
0.000152986
0.000152821
0.000152697
0.000154236
0.000154793
0.000154782
0.000154486
0.00015409
0.000153672
0.000153244
0.000152791
0.000152322
0.000151924
0.000154836
0.000155931
0.000155938
0.000155475
0.000154849
0.000154147
0.000153335
0.000152339
0.000151176
0.000150187
0.000155449
0.000157721
0.000157936
0.000157445
0.000156702
0.000155781
0.000154534
0.000152643
0.000149605
0.000144596
0.000153271
0.00015322
0.000153189
0.000153195
0.000153232
0.000153286
0.000153333
0.000153306
0.000153034
0.000152025
0.000153096
0.000153101
0.000153094
0.000153093
0.000153097
0.000153096
0.000153073
0.000152992
0.000152808
0.000152528
0.00015302
0.00015303
0.000153029
0.000153023
0.000153012
0.000152993
0.000152955
0.00015289
0.000152795
0.000152701
0.000152986
0.000152993
0.00015299
0.000152982
0.000152968
0.000152947
0.000152915
0.000152872
0.000152823
0.000152785
0.000152971
0.000152974
0.000152971
0.000152963
0.00015295
0.000152933
0.00015291
0.000152883
0.000152857
0.00015284
0.000152964
0.000152965
0.000152961
0.000152955
0.000152946
0.000152933
0.000152919
0.000152903
0.000152888
0.000152879
0.000152961
0.000152961
0.000152958
0.000152954
0.000152947
0.000152939
0.00015293
0.000152921
0.000152913
0.000152908
0.00015296
0.000152959
0.000152957
0.000152954
0.00015295
0.000152946
0.00015294
0.000152935
0.00015293
0.000152928
0.000152959
0.000152958
0.000152957
0.000152955
0.000152953
0.00015295
0.000152947
0.000152944
0.000152941
0.00015294
0.000152958
0.000152958
0.000152957
0.000152956
0.000152954
0.000152953
0.000152951
0.000152949
0.000152947
0.000152946
0.000152958
0.000152958
0.000152957
0.000152957
0.000152957
0.000152957
0.000152957
0.000152957
0.000152956
0.000152956
0.000152958
0.000152958
0.000152958
0.000152958
0.000152958
0.000152957
0.000152957
0.000152957
0.000152957
0.000152957
0.000152958
0.000152958
0.000152958
0.000152958
0.000152958
0.000152958
0.000152957
0.000152957
0.000152957
0.000152957
0.000152958
0.000152958
0.000152958
0.000152958
0.000152958
0.000152958
0.000152957
0.000152957
0.000152957
0.000152957
0.000152958
0.000152958
0.000152958
0.000152958
0.000152958
0.000152958
0.000152957
0.000152957
0.000152957
0.000152957
0.000152958
0.000152958
0.000152958
0.000152958
0.000152958
0.000152958
0.000152957
0.000152957
0.000152957
0.000152957
0.000152958
0.000152958
0.000152958
0.000152958
0.000152958
0.000152958
0.000152957
0.000152957
0.000152957
0.000152957
0.000152958
0.000152958
0.000152958
0.000152958
0.000152958
0.000152958
0.000152957
0.000152957
0.000152957
0.000152957
0.000152958
0.000152958
0.000152958
0.000152958
0.000152958
0.000152958
0.000152957
0.000152957
0.000152957
0.000152957
0.000152958
0.000152958
0.000152958
0.000152958
0.000152958
0.000152957
0.000152957
0.000152957
0.000152957
0.000152957
)
;

boundaryField
{
    defaultFaces
    {
        type            empty;
    }
}


// ************************************************************************* //
