/*--------------------------------*- C++ -*----------------------------------*\
  =========                 |
  \\      /  F ield         | OpenFOAM: The Open Source CFD Toolbox
   \\    /   O peration     | Website:  https://openfoam.org
    \\  /    A nd           | Version:  11
     \\/     M anipulation  |
\*---------------------------------------------------------------------------*/
FoamFile
{
    format      ascii;
    class       volScalarField;
    location    "10";
    object      nut;
}
// * * * * * * * * * * * * * * * * * * * * * * * * * * * * * * * * * * * * * //

dimensions      [0 2 -1 0 0 0 0];

internalField   nonuniform List<scalar> 
2200
(
0.000133715
0.000133715
0.000133715
0.000133715
0.000133715
0.000133715
0.000133715
0.000133715
0.000133715
0.000133715
0.000133715
0.000133715
0.000133715
0.000133715
0.000133715
0.000133715
0.000133715
0.000133715
0.000133715
0.000133715
0.000133715
0.000133715
0.000133715
0.000133715
0.000133715
0.000133715
0.000133715
0.000133715
0.000133715
0.000133715
0.000133715
0.000133715
0.000133715
0.000133715
0.000133715
0.000133715
0.000133715
0.000133715
0.000133715
0.000133715
0.000133715
0.000133715
0.000133715
0.000133715
0.000133715
0.000133715
0.000133715
0.000133715
0.000133715
0.000133715
0.000133715
0.000133715
0.000133715
0.000133715
0.000133715
0.000133715
0.000133715
0.000133715
0.000133715
0.000133715
0.000133715
0.000133715
0.000133715
0.000133715
0.000133715
0.000133715
0.000133715
0.000133715
0.000133715
0.000133715
0.000133715
0.000133715
0.000133715
0.000133715
0.000133715
0.000133715
0.000133715
0.000133715
0.000133715
0.000133715
0.000133715
0.000133715
0.000133715
0.000133715
0.000133715
0.000133715
0.000133715
0.000133715
0.000133715
0.000133715
0.000133715
0.000133715
0.000133715
0.000133715
0.000133715
0.000133715
0.000133715
0.000133715
0.000133715
0.000133715
0.000133715
0.000133715
0.000133715
0.000133715
0.000133715
0.000133715
0.000133715
0.000133715
0.000133715
0.000133715
0.000133715
0.000133715
0.000133715
0.000133715
0.000133715
0.000133715
0.000133715
0.000133715
0.000133715
0.000133715
0.000133715
0.000133715
0.000133715
0.000133715
0.000133715
0.000133715
0.000133715
0.000133715
0.000133715
0.000133715
0.000133715
0.000133715
0.000133715
0.000133715
0.000133715
0.000133715
0.000133715
0.000133715
0.000133715
0.000133715
0.000133715
0.000133715
0.000133715
0.000133715
0.000133715
0.000133715
0.000133715
0.000133715
0.000133715
0.000133715
0.000133715
0.000133715
0.000133715
0.000133715
0.000133715
0.000133715
0.000133715
0.000133715
0.000133715
0.000133715
0.000133715
0.000133715
0.000133715
0.000133715
0.000133715
0.000133715
0.000133715
0.000133715
0.000133715
0.000133715
0.000133715
0.000133715
0.000133715
0.000133715
0.000133715
0.000133715
0.000133715
0.000133715
0.000133715
0.000133715
0.000133715
0.000133715
0.000133715
0.000133715
0.000133715
0.000133715
0.000133715
0.000133715
0.000133715
0.000133715
0.000133715
0.000133715
0.000133715
0.000133715
0.000133715
0.000133715
0.000133715
0.000133715
0.000133715
0.000133715
0.000133715
0.000133715
0.000133715
0.000133715
0.000133715
0.000133715
0.000133715
0.000133715
0.000133715
0.000133715
0.000133715
0.000133715
0.000133715
0.000133715
0.000133715
0.000133715
0.000133715
0.000133715
0.000133715
0.000133715
0.000133715
0.000133715
0.000133715
0.000133715
0.000133715
0.000133715
0.000133715
0.000133715
0.000133715
0.000133715
0.000133715
0.000133715
0.000133715
0.000133715
0.000133715
0.000133715
0.000133715
0.000133715
0.000133715
0.000133715
0.000133715
0.000133715
0.000133715
0.000133715
0.000133715
0.000133715
0.000133715
0.000133715
0.000133715
0.000133715
0.000133715
0.000133715
0.000133715
0.000133715
0.000133715
0.000133715
0.000133715
0.000133715
0.000133715
0.000133715
0.000133715
0.000133715
0.000133715
0.000133715
0.000133715
0.000133715
0.000133715
0.000133715
0.000133715
0.000133715
0.000133715
0.000133715
0.000133715
0.000133715
0.000133715
0.000133715
0.000133715
0.000133715
0.000133715
0.000133715
0.000133715
0.000133715
0.000133715
0.000133715
0.000133715
0.000133715
0.000133715
0.000133715
0.000133715
0.000133715
0.000133715
0.000133715
0.000133715
0.000133715
0.000133715
0.000133715
0.000133715
0.000133715
0.000133715
0.000133715
0.000133715
0.000133715
0.000133715
0.000133715
0.000133715
0.000133715
0.000133715
0.000133715
0.000133715
0.000133715
0.000133715
0.000133715
0.000133715
0.000133715
0.000133715
0.000133715
0.000133715
0.000133715
0.000133715
0.000133715
0.000133715
0.000133715
0.000133715
0.000133715
0.000133715
0.000133715
0.000133715
0.000133715
0.000133715
0.000133715
0.000133715
0.000133715
0.000133715
0.000133715
0.000133715
0.000133715
0.000133715
0.000133715
0.000133715
0.000133715
0.000133715
0.000133715
0.000133715
0.000133715
0.000133715
0.000133715
0.000133715
0.000133715
0.000133715
0.000133715
0.000133715
0.000133715
0.000133715
0.000133715
0.000133715
0.000133715
0.000133715
0.000133715
0.000133715
0.000133715
0.000133715
0.000133715
0.000133715
0.000133715
0.000133715
0.000133715
0.000133715
0.000133715
0.000133715
0.000133715
0.000133715
0.000133715
0.000133715
0.000133715
0.000133715
0.000133715
0.000133715
0.000133715
0.000133715
0.000133715
0.000133715
0.000133715
0.000133715
0.000133715
0.000133715
0.000133715
0.000133715
0.000133715
0.000133715
0.000133715
0.000133715
0.000133715
0.000133715
0.000133715
0.000133715
0.000133715
0.000133715
0.000133715
0.000133715
0.000133715
0.000133715
0.000133715
0.000133715
0.000133715
0.000133715
0.000133715
0.000133715
0.000133715
0.000133715
0.000133715
0.000133715
0.000133715
0.000133715
0.000133715
0.000133715
0.000133715
0.000133715
0.000133715
0.000133715
0.000133714
0.000133715
0.000133715
0.000133715
0.000133715
0.000133715
0.000133715
0.000133715
0.000133715
0.000133714
0.000133714
0.000133716
0.000133716
0.000133716
0.000133715
0.000133715
0.000133715
0.000133715
0.000133714
0.000133713
0.000133713
0.000133717
0.000133717
0.000133716
0.000133716
0.000133715
0.000133715
0.000133714
0.000133713
0.000133711
0.00013371
0.00013372
0.000133719
0.000133718
0.000133717
0.000133716
0.000133715
0.000133713
0.00013371
0.000133707
0.000133705
0.000133726
0.000133724
0.000133721
0.000133719
0.000133717
0.000133715
0.000133711
0.000133706
0.000133699
0.000133694
0.000133739
0.000133734
0.000133728
0.000133723
0.000133719
0.000133715
0.000133708
0.000133697
0.000133684
0.000133674
0.000133763
0.000133754
0.000133741
0.00013373
0.000133723
0.000133715
0.000133703
0.000133682
0.000133656
0.000133636
0.000133808
0.00013379
0.000133765
0.000133744
0.00013373
0.000133716
0.000133694
0.000133656
0.000133608
0.000133571
0.000133888
0.000133854
0.000133807
0.000133769
0.000133742
0.000133719
0.00013368
0.000133614
0.000133527
0.000133459
0.000134029
0.000133964
0.000133879
0.00013381
0.000133764
0.000133725
0.000133662
0.00013355
0.000133399
0.000133277
0.000134264
0.000134146
0.000133994
0.000133875
0.0001338
0.000133738
0.000133639
0.000133457
0.000133202
0.000132986
0.000134647
0.000134436
0.000134174
0.000133975
0.000133854
0.000133762
0.000133614
0.000133332
0.000132913
0.000132538
0.000135248
0.000134878
0.00013444
0.000134119
0.000133935
0.000133804
0.000133596
0.000133177
0.00013251
0.000131859
0.000136166
0.000135525
0.000134812
0.000134316
0.000134046
0.000133871
0.000133598
0.000133008
0.000131976
0.000130845
0.000137535
0.000136431
0.000135305
0.000134568
0.000134191
0.000133974
0.000133644
0.000132865
0.000131325
0.00012933
0.000139535
0.00013763
0.000135912
0.000134866
0.000134367
0.00013412
0.000133766
0.000132826
0.000130639
0.000127036
0.000142426
0.000139106
0.000136591
0.000135187
0.000134563
0.000134311
0.000134
0.00013302
0.000130174
0.000123451
0.000146596
0.000140709
0.00013725
0.000135488
0.00013476
0.00013454
0.000134368
0.000133619
0.000130595
0.000117543
0.000149147
0.000142856
0.000138344
0.000136081
0.000135106
0.000134835
0.000134883
0.000134956
0.000134769
0.000132857
0.000146536
0.000143381
0.000139445
0.000137
0.000135665
0.000135075
0.000134947
0.000135058
0.000135213
0.000134631
0.000141219
0.000141281
0.000139064
0.000137304
0.000136076
0.000135326
0.000134955
0.000134852
0.000134903
0.0001348
0.000134435
0.000136999
0.000136799
0.000136301
0.000135747
0.000135267
0.00013492
0.000134717
0.000134638
0.000134598
0.000127519
0.000131494
0.000132986
0.000133815
0.000134219
0.000134372
0.000134394
0.000134367
0.000134339
0.000134323
0.000121749
0.000126121
0.000128679
0.000130494
0.00013175
0.000132594
0.000133144
0.000133493
0.000133712
0.000133851
0.00011818
0.000122322
0.000125333
0.000127647
0.000129402
0.000130714
0.000131678
0.000132376
0.000132872
0.000133222
0.000117484
0.000121193
0.000124194
0.000126565
0.000128422
0.000129861
0.000130964
0.000131797
0.000132419
0.000132876
0.000119906
0.000123109
0.000125687
0.000127708
0.000129289
0.000130515
0.000131457
0.000132171
0.000132707
0.000133111
0.000125581
0.000127526
0.000129013
0.000130228
0.000131205
0.000131972
0.000132565
0.000133027
0.000133427
0.000133882
0.000130802
0.000130705
0.000131145
0.000131711
0.000132247
0.000132702
0.000133064
0.000133343
0.00013356
0.000133737
0.000131889
0.000131941
0.000132154
0.000132452
0.000132762
0.000133043
0.000133277
0.000133461
0.000133599
0.0001337
0.000132631
0.000132681
0.000132797
0.000132957
0.000133132
0.000133297
0.00013344
0.000133554
0.00013364
0.000133701
0.000133101
0.000133132
0.000133196
0.000133282
0.000133378
0.000133471
0.000133553
0.00013362
0.000133671
0.000133707
0.000133383
0.000133401
0.000133434
0.000133479
0.00013353
0.00013358
0.000133626
0.000133663
0.000133691
0.000133711
0.000133545
0.000133554
0.000133571
0.000133594
0.00013362
0.000133645
0.000133669
0.000133688
0.000133703
0.000133713
0.000133633
0.000133637
0.000133645
0.000133656
0.000133669
0.000133681
0.000133693
0.000133703
0.00013371
0.000133715
0.000133678
0.00013368
0.000133683
0.000133688
0.000133694
0.0001337
0.000133706
0.00013371
0.000133713
0.000133715
0.000133699
0.0001337
0.000133702
0.000133704
0.000133707
0.000133709
0.000133712
0.000133714
0.000133715
0.000133716
0.000133709
0.00013371
0.00013371
0.000133711
0.000133712
0.000133713
0.000133714
0.000133715
0.000133716
0.000133716
0.000133714
0.000133714
0.000133714
0.000133714
0.000133715
0.000133715
0.000133715
0.000133716
0.000133716
0.000133716
0.000133715
0.000133715
0.000133715
0.000133715
0.000133716
0.000133716
0.000133716
0.000133716
0.000133716
0.000133716
0.000133716
0.000133716
0.000133716
0.000133716
0.000133716
0.000133716
0.000133716
0.000133716
0.000133716
0.000133716
0.000133716
0.000133716
0.000133716
0.000133716
0.000133716
0.000133716
0.000133716
0.000133716
0.000133716
0.000133716
0.000133716
0.000133716
0.000133716
0.000133716
0.000133716
0.000133716
0.000133716
0.000133716
0.000133716
0.000133716
0.000133716
0.000133716
0.000133716
0.000133716
0.000133716
0.000133716
0.000133716
0.000133716
0.000133716
0.000133716
0.000133716
0.000133716
0.000133716
0.000133716
0.000133716
0.000133716
0.000133716
0.000133716
0.000133716
0.000133716
0.000133716
0.000133716
0.000133716
0.000133716
0.000133716
0.000133716
0.000133716
0.000133716
0.000133716
0.000133716
0.000133716
0.000133716
0.000133716
0.000133716
0.000133716
0.000133716
0.000133716
0.000133716
0.000133716
0.000133716
0.000133716
0.000133716
0.000133716
0.000133716
0.000133716
0.000133716
0.000133716
0.000133716
0.000133716
0.000133716
0.000133716
0.000133716
0.000133716
0.000133716
0.000133716
0.000133716
0.000133716
0.000133716
0.000133716
0.000133716
0.000133716
0.000133716
0.000133716
0.000133716
0.000133716
0.000133716
0.000133716
0.000133716
0.000133716
0.000133716
0.000133716
0.000133716
0.000133716
0.000133716
0.000133716
0.000133716
0.000133716
0.000133716
0.000133716
0.000133716
0.000133716
0.000133716
0.000133716
0.000133716
0.000133716
0.000133716
0.000133716
0.000133716
0.000133716
0.000133716
0.000133716
0.000133716
0.000133716
0.000133716
0.000133716
0.000133716
0.000133716
0.000133716
0.000133716
0.000133716
0.000133716
0.000133716
0.000133716
0.000133716
0.000133716
0.000133716
0.000133716
0.000133716
0.000133716
0.000133716
0.000133716
0.000133716
0.000133716
0.000133716
0.000133716
0.000133716
0.000133716
0.000133716
0.000133716
0.000133716
0.000133716
0.000133716
0.000133716
0.000133716
0.000133716
0.000133716
0.000133716
0.000133716
0.000133716
0.000133716
0.000133716
0.000133716
0.000133716
0.000133716
0.000133716
0.000133716
0.000133716
0.000133716
0.000133716
0.000133716
0.000133716
0.000133716
0.000133716
0.000133716
0.000133716
0.000133716
0.000133716
0.000133716
0.000133716
0.000133716
0.000133716
0.000133716
0.000133716
0.000133716
0.000133716
0.000133716
0.000133716
0.000133716
0.000133716
0.000133716
0.000133716
0.000133716
0.000133716
0.000133716
0.000133716
0.000133716
0.000133716
0.000133716
0.000133716
0.000133716
0.000133716
0.000133716
0.000133716
0.000133716
0.000133716
0.000133716
0.000133716
0.000133716
0.000133716
0.000133716
0.000133716
0.000133716
0.000133716
0.000133716
0.000133716
0.000133716
0.000133716
0.000133716
0.000133716
0.000133716
0.000133716
0.000133716
0.000133716
0.000133716
0.000133716
0.000133716
0.000133716
0.000133716
0.000133716
0.000133716
0.000133716
0.000133716
0.000133716
0.000133716
0.000133716
0.000133716
0.000133716
0.000133716
0.000133716
0.000133716
0.000133716
0.000133716
0.000133716
0.000133716
0.000133716
0.000133716
0.000133716
0.000133716
0.000133716
0.000133716
0.000133716
0.000133716
0.000133716
0.000133716
0.000133716
0.000133716
0.000133716
0.000133716
0.000133716
0.000133716
0.000133716
0.000133716
0.000133716
0.000133716
0.000133716
0.000133716
0.000133716
0.000133716
0.000133716
0.000133716
0.000133716
0.000133716
0.000133716
0.000133716
0.000133716
0.000133716
0.000133716
0.000133716
0.000133716
0.000133716
0.000133716
0.000133716
0.000133716
0.000133716
0.000133716
0.000133716
0.000133716
0.000133716
0.000133716
0.000133716
0.000133716
0.000133716
0.000133716
0.000133716
0.000133716
0.000133716
0.000133716
0.000133716
0.000133716
0.000133716
0.000133716
0.000133716
0.000133716
0.000133716
0.000133716
0.000133716
0.000133716
0.000133716
0.000133716
0.000133716
0.000133716
0.000133716
0.000133716
0.000133716
0.000133716
0.000133716
0.000133716
0.000133716
0.000133716
0.000133716
0.000133716
0.000133716
0.000133716
0.000133716
0.000133716
0.000133716
0.000133716
0.000133716
0.000133716
0.000133716
0.000133716
0.000133716
0.000133716
0.000133716
0.000133716
0.000133716
0.000133716
0.000133716
0.000133716
0.000133716
0.000133716
0.000133716
0.000133716
0.000133716
0.000133716
0.000133716
0.000133716
0.000133716
0.000133716
0.000133716
0.000133716
0.000133716
0.000133716
0.000133716
0.000133716
0.000133716
0.000133716
0.000133716
0.000133716
0.000133716
0.000133716
0.000133716
0.000133716
0.000133716
0.000133716
0.000133716
0.000133716
0.000133716
0.000133716
0.000133716
0.000133716
0.000133716
0.000133716
0.000133716
0.000133716
0.000133716
0.000133716
0.000133716
0.000133716
0.000133716
0.000133716
0.000133716
0.000133716
0.000133716
0.000133716
0.000133716
0.000133716
0.000133716
0.000133716
0.000133716
0.000133716
0.000133716
0.000133716
0.000133716
0.000133716
0.000133716
0.000133716
0.000133716
0.000133716
0.000133716
0.000133716
0.000133716
0.000133716
0.000133716
0.000133716
0.000133716
0.000133716
0.000133716
0.000133716
0.000133716
0.000133716
0.000133716
0.000133716
0.000133716
0.000133716
0.000133716
0.000133716
0.000133716
0.000133716
0.000133716
0.000133716
0.000133716
0.000133716
0.000133716
0.000133716
0.000133716
0.000133716
0.000133716
0.000133716
0.000133716
0.000133716
0.000133716
0.000133716
0.000133716
0.000133716
0.000133716
0.000133716
0.000133716
0.000133716
0.000133716
0.000133716
0.000133716
0.000133716
0.000133716
0.000133716
0.000133716
0.000133716
0.000133716
0.000133716
0.000133716
0.000133716
0.000133716
0.000133716
0.000133716
0.000133716
0.000133716
0.000133716
0.000133716
0.000133716
0.000133716
0.000133716
0.000133716
0.000133716
0.000133716
0.000133716
0.000133716
0.000133716
0.000133716
0.000133716
0.000133716
0.000133716
0.000133716
0.000133716
0.000133716
0.000133716
0.000133716
0.000133716
0.000133716
0.000133716
0.000133716
0.000133716
0.000133716
0.000133716
0.000133716
0.000133716
0.000133716
0.000133716
0.000133716
0.000133716
0.000133716
0.000133716
0.000133716
0.000133716
0.000133716
0.000133716
0.000133716
0.000133716
0.000133716
0.000133716
0.000133716
0.000133716
0.000133716
0.000133716
0.000133716
0.000133716
0.000133716
0.000133716
0.000133716
0.000133716
0.000133716
0.000133716
0.000133716
0.000133716
0.000133716
0.000133716
0.000133716
0.000133716
0.000133716
0.000133716
0.000133716
0.000133716
0.000133716
0.000133716
0.000133716
0.000133716
0.000133716
0.000133716
0.000133716
0.000133716
0.000133716
0.000133716
0.000133716
0.000133716
0.000133716
0.000133716
0.000133716
0.000133716
0.000133716
0.000133716
0.000133716
0.000133716
0.000133716
0.000133716
0.000133716
0.000133716
0.000133716
0.000133716
0.000133716
0.000133716
0.000133716
0.000133716
0.000133716
0.000133716
0.000133716
0.000133716
0.000133716
0.000133716
0.000133716
0.000133716
0.000133716
0.000133716
0.000133716
0.000133716
0.000133716
0.000133716
0.000133716
0.000133716
0.000133716
0.000133716
0.000133716
0.000133715
0.000133715
0.000133715
0.000133715
0.000133715
0.000133715
0.000133715
0.000133715
0.000133715
0.000133715
0.000134074
0.00013416
0.000134252
0.000134333
0.000134384
0.000134399
0.00013438
0.00013434
0.000134262
0.000134166
0.000133917
0.000133966
0.000134011
0.000134025
0.000133992
0.000133913
0.000133797
0.000133655
0.000133491
0.000133326
0.000133928
0.000133935
0.000133926
0.000133884
0.000133806
0.000133696
0.000133565
0.00013342
0.000133268
0.000133119
0.000134002
0.000134005
0.000133976
0.000133914
0.000133826
0.000133723
0.000133614
0.00013351
0.00013342
0.000133357
0.000134121
0.000134152
0.000134119
0.000134043
0.000133946
0.000133847
0.000133764
0.000133716
0.000133719
0.000133797
0.0001343
0.0001344
0.000134371
0.000134266
0.000134135
0.000134015
0.000133934
0.000133915
0.000133979
0.000134151
0.000134561
0.000134805
0.00013479
0.000134631
0.000134425
0.000134236
0.000134103
0.000134053
0.000134114
0.000134323
0.000134936
0.000135456
0.000135467
0.000135217
0.00013488
0.000134547
0.000134259
0.000134043
0.000133959
0.000134139
0.000135475
0.000136477
0.000136513
0.000136123
0.000135587
0.000135005
0.000134376
0.00013367
0.000132945
0.000132574
0.000136018
0.000138058
0.000138282
0.000137871
0.000137232
0.000136446
0.000135391
0.000133762
0.000131024
0.000126215
0.000133859
0.000133855
0.000133882
0.000133927
0.000133985
0.000134049
0.000134103
0.000134089
0.000133858
0.00013298
0.000133766
0.000133796
0.000133819
0.000133839
0.000133857
0.000133867
0.000133854
0.000133789
0.000133633
0.00013339
0.00013374
0.000133762
0.000133773
0.000133777
0.000133775
0.000133763
0.000133735
0.000133681
0.000133599
0.000133518
0.000133729
0.00013374
0.000133743
0.00013374
0.000133731
0.000133714
0.000133687
0.000133651
0.000133609
0.000133576
0.000133723
0.000133727
0.000133726
0.000133721
0.00013371
0.000133695
0.000133676
0.000133653
0.00013363
0.000133614
0.000133719
0.00013372
0.000133718
0.000133713
0.000133704
0.000133693
0.00013368
0.000133665
0.000133652
0.000133644
0.000133717
0.000133717
0.000133715
0.00013371
0.000133704
0.000133697
0.000133689
0.00013368
0.000133673
0.000133668
0.000133716
0.000133716
0.000133714
0.000133711
0.000133707
0.000133703
0.000133697
0.000133692
0.000133688
0.000133685
0.000133716
0.000133715
0.000133714
0.000133712
0.00013371
0.000133707
0.000133704
0.000133702
0.000133699
0.000133697
0.000133716
0.000133715
0.000133715
0.000133714
0.000133712
0.000133711
0.000133709
0.000133708
0.000133706
0.000133705
0.000133716
0.000133716
0.000133715
0.000133715
0.000133714
0.000133713
0.000133712
0.000133711
0.000133711
0.00013371
0.000133716
0.000133716
0.000133716
0.000133715
0.000133715
0.000133714
0.000133714
0.000133714
0.000133713
0.000133712
0.000133716
0.000133716
0.000133716
0.000133716
0.000133715
0.000133715
0.000133715
0.000133715
0.000133714
0.000133714
0.000133716
0.000133716
0.000133716
0.000133716
0.000133716
0.000133716
0.000133715
0.000133715
0.000133715
0.000133714
0.000133716
0.000133716
0.000133716
0.000133716
0.000133716
0.000133716
0.000133716
0.000133716
0.000133715
0.000133715
0.000133716
0.000133716
0.000133716
0.000133716
0.000133716
0.000133716
0.000133716
0.000133716
0.000133715
0.000133715
0.000133716
0.000133716
0.000133716
0.000133716
0.000133716
0.000133716
0.000133716
0.000133716
0.000133715
0.000133715
0.000133716
0.000133716
0.000133716
0.000133716
0.000133716
0.000133716
0.000133716
0.000133716
0.000133715
0.000133715
0.000133716
0.000133716
0.000133716
0.000133716
0.000133716
0.000133716
0.000133716
0.000133716
0.000133715
0.000133715
0.000133716
0.000133716
0.000133716
0.000133716
0.000133716
0.000133716
0.000133716
0.000133716
0.000133715
0.000133715
0.000133716
0.000133716
0.000133716
0.000133716
0.000133716
0.000133716
0.000133716
0.000133716
0.000133715
0.000133715
0.000133716
0.000133716
0.000133716
0.000133716
0.000133716
0.000133716
0.000133716
0.000133716
0.000133715
0.000133715
0.000133716
0.000133716
0.000133716
0.000133716
0.000133716
0.000133716
0.000133716
0.000133716
0.000133715
0.000133715
0.000133716
0.000133716
0.000133716
0.000133716
0.000133716
0.000133716
0.000133716
0.000133716
0.000133715
0.000133715
0.000133716
0.000133716
0.000133716
0.000133716
0.000133716
0.000133716
0.000133716
0.000133716
0.000133715
0.000133715
0.000133716
0.000133716
0.000133716
0.000133716
0.000133716
0.000133716
0.000133716
0.000133716
0.000133715
0.000133715
0.000133716
0.000133716
0.000133716
0.000133716
0.000133716
0.000133716
0.000133716
0.000133716
0.000133715
0.000133715
0.000133716
0.000133716
0.000133716
0.000133716
0.000133716
0.000133716
0.000133716
0.000133716
0.000133715
0.000133715
0.000133716
0.000133716
0.000133716
0.000133716
0.000133716
0.000133716
0.000133716
0.000133716
0.000133715
0.000133715
0.000133716
0.000133716
0.000133716
0.000133716
0.000133716
0.000133716
0.000133716
0.000133716
0.000133715
0.000133715
0.000133716
0.000133716
0.000133716
0.000133716
0.000133716
0.000133716
0.000133716
0.000133716
0.000133715
0.000133715
0.000133716
0.000133716
0.000133716
0.000133716
0.000133716
0.000133716
0.000133716
0.000133716
0.000133715
0.000133715
0.000133716
0.000133716
0.000133716
0.000133716
0.000133716
0.000133716
0.000133716
0.000133716
0.000133715
0.000133715
0.000133716
0.000133716
0.000133716
0.000133716
0.000133716
0.000133716
0.000133716
0.000133716
0.000133715
0.000133715
0.000133716
0.000133716
0.000133716
0.000133716
0.000133716
0.000133716
0.000133716
0.000133716
0.000133715
0.000133715
0.000133716
0.000133716
0.000133716
0.000133716
0.000133716
0.000133716
0.000133716
0.000133716
0.000133715
0.000133715
0.000133716
0.000133716
0.000133716
0.000133716
0.000133716
0.000133716
0.000133716
0.000133716
0.000133715
0.000133715
0.000133716
0.000133716
0.000133716
0.000133716
0.000133716
0.000133716
0.000133716
0.000133716
0.000133715
0.000133715
0.000133716
0.000133716
0.000133716
0.000133716
0.000133716
0.000133716
0.000133716
0.000133716
0.000133715
0.000133715
0.000133716
0.000133716
0.000133716
0.000133716
0.000133716
0.000133716
0.000133716
0.000133716
0.000133715
0.000133715
0.000133716
0.000133716
0.000133716
0.000133716
0.000133716
0.000133716
0.000133716
0.000133716
0.000133715
0.000133715
0.000133716
0.000133716
0.000133716
0.000133716
0.000133716
0.000133716
0.000133716
0.000133716
0.000133715
0.000133715
0.000133716
0.000133716
0.000133716
0.000133716
0.000133716
0.000133716
0.000133716
0.000133716
0.000133715
0.000133715
0.000133716
0.000133716
0.000133716
0.000133716
0.000133716
0.000133716
0.000133716
0.000133716
0.000133715
0.000133715
0.000133716
0.000133716
0.000133716
0.000133716
0.000133716
0.000133716
0.000133716
0.000133716
0.000133715
0.000133715
0.000133716
0.000133716
0.000133716
0.000133716
0.000133716
0.000133716
0.000133716
0.000133716
0.000133715
0.000133715
0.000133716
0.000133716
0.000133716
0.000133716
0.000133716
0.000133716
0.000133716
0.000133716
0.000133715
0.000133715
0.000133716
0.000133716
0.000133716
0.000133716
0.000133716
0.000133716
0.000133716
0.000133716
0.000133715
0.000133715
0.000133716
0.000133716
0.000133716
0.000133716
0.000133716
0.000133716
0.000133716
0.000133716
0.000133715
0.000133715
0.000133716
0.000133716
0.000133716
0.000133716
0.000133716
0.000133716
0.000133716
0.000133716
0.000133715
0.000133715
0.000133716
0.000133716
0.000133716
0.000133716
0.000133716
0.000133716
0.000133716
0.000133716
0.000133715
0.000133715
0.000133716
0.000133716
0.000133716
0.000133716
0.000133716
0.000133716
0.000133716
0.000133716
0.000133715
0.000133715
0.000133716
0.000133716
0.000133716
0.000133716
0.000133716
0.000133716
0.000133716
0.000133716
0.000133715
0.000133715
0.000133716
0.000133716
0.000133716
0.000133716
0.000133716
0.000133716
0.000133716
0.000133716
0.000133715
0.000133715
0.000133716
0.000133716
0.000133716
0.000133716
0.000133716
0.000133716
0.000133716
0.000133716
0.000133715
0.000133715
0.000133716
0.000133716
0.000133716
0.000133716
0.000133716
0.000133716
0.000133716
0.000133716
0.000133715
0.000133715
0.000133716
0.000133716
0.000133716
0.000133716
0.000133716
0.000133716
0.000133716
0.000133716
0.000133715
0.000133715
0.000133716
0.000133716
0.000133716
0.000133716
0.000133716
0.000133716
0.000133716
0.000133716
0.000133715
0.000133715
0.000133716
0.000133716
0.000133716
0.000133716
0.000133716
0.000133716
0.000133716
0.000133716
0.000133715
0.000133715
0.000133716
0.000133716
0.000133716
0.000133716
0.000133716
0.000133716
0.000133716
0.000133716
0.000133715
0.000133715
0.000133716
0.000133716
0.000133716
0.000133716
0.000133716
0.000133716
0.000133716
0.000133716
0.000133715
0.000133715
0.000133716
0.000133716
0.000133716
0.000133716
0.000133716
0.000133716
0.000133716
0.000133716
0.000133715
0.000133715
0.000133716
0.000133716
0.000133716
0.000133716
0.000133716
0.000133716
0.000133716
0.000133716
0.000133715
0.000133715
0.000133716
0.000133716
0.000133716
0.000133716
0.000133716
0.000133716
0.000133716
0.000133716
0.000133715
0.000133715
0.000133716
0.000133716
0.000133716
0.000133716
0.000133716
0.000133716
0.000133716
0.000133716
0.000133715
0.000133715
0.000133716
0.000133716
0.000133716
0.000133716
0.000133716
0.000133716
0.000133716
0.000133716
0.000133715
0.000133715
0.000133716
0.000133716
0.000133716
0.000133716
0.000133716
0.000133716
0.000133716
0.000133716
0.000133715
0.000133715
0.000133716
0.000133716
0.000133716
0.000133716
0.000133716
0.000133716
0.000133716
0.000133716
0.000133715
0.000133715
0.000133716
0.000133716
0.000133716
0.000133716
0.000133716
0.000133716
0.000133716
0.000133715
0.000133715
0.000133715
0.000133715
0.000133715
0.000133715
0.000133715
0.000133715
0.000133715
0.000133715
0.000133715
0.000133715
0.000133714
)
;

boundaryField
{
    defaultFaces
    {
        type            empty;
    }
}


// ************************************************************************* //
