/*--------------------------------*- C++ -*----------------------------------*\
  =========                 |
  \\      /  F ield         | OpenFOAM: The Open Source CFD Toolbox
   \\    /   O peration     | Website:  https://openfoam.org
    \\  /    A nd           | Version:  11
     \\/     M anipulation  |
\*---------------------------------------------------------------------------*/
FoamFile
{
    format      ascii;
    class       volScalarField;
    location    "10";
    object      nut;
}
// * * * * * * * * * * * * * * * * * * * * * * * * * * * * * * * * * * * * * //

dimensions      [0 2 -1 0 0 0 0];

internalField   nonuniform List<scalar> 
700
(
0.000133714
0.000133714
0.000133714
0.000133714
0.000133714
0.000133714
0.000133714
0.000133714
0.000133714
0.000133714
0.000133714
0.000133714
0.000133714
0.000133714
0.000133714
0.000133714
0.000133714
0.000133714
0.000133714
0.000133714
0.000133714
0.000133714
0.000133714
0.000133714
0.000133714
0.000133714
0.000133714
0.000133714
0.000133714
0.000133714
0.000133714
0.000133714
0.000133714
0.000133714
0.000133714
0.000133714
0.000133714
0.000133714
0.000133714
0.000133714
0.000133714
0.000133714
0.000133714
0.000133714
0.000133714
0.000133714
0.000133714
0.000133714
0.000133714
0.000133714
0.000133714
0.000133714
0.000133714
0.000133714
0.000133714
0.000133714
0.000133714
0.000133714
0.000133714
0.000133714
0.000133716
0.000133716
0.000133715
0.000133715
0.000133715
0.000133714
0.000133714
0.000133714
0.000133714
0.000133714
0.000133748
0.000133741
0.000133731
0.000133723
0.000133718
0.000133715
0.000133712
0.00013371
0.000133706
0.000133703
0.000134158
0.000134043
0.000133912
0.000133813
0.000133754
0.000133718
0.000133691
0.000133658
0.000133615
0.000133574
0.000138221
0.000136647
0.000135314
0.00013446
0.000133984
0.000133714
0.000133507
0.000133261
0.000132895
0.000132313
0.000151425
0.000143653
0.0001385
0.000135869
0.000134518
0.000133756
0.00013322
0.000132762
0.000132348
0.000132196
0.000147611
0.000144157
0.00013983
0.000137046
0.000135374
0.000134374
0.000133718
0.000133202
0.000132722
0.000132334
0.000141686
0.000141758
0.000139424
0.000137491
0.000136056
0.000135052
0.000134351
0.000133827
0.000133378
0.000132957
0.000134618
0.000137231
0.000137026
0.000136479
0.000135841
0.000135241
0.00013473
0.000134306
0.000133942
0.000133597
0.000127585
0.000131588
0.000133094
0.000133921
0.000134306
0.000134419
0.000134378
0.00013426
0.000134103
0.000133922
0.000121771
0.000126154
0.000128721
0.00013054
0.000131795
0.00013263
0.000133163
0.000133482
0.000133656
0.000133731
0.000118188
0.000122333
0.000125347
0.000127663
0.000129419
0.000130729
0.000131689
0.000132377
0.00013286
0.000133189
0.000117488
0.000121197
0.000124198
0.00012657
0.000128427
0.000129866
0.000130966
0.000131797
0.000132414
0.000132865
0.000119907
0.000123111
0.000125688
0.00012771
0.00012929
0.000130519
0.000131466
0.000132193
0.000132758
0.00013321
0.000125582
0.000127527
0.000129014
0.000130231
0.000131212
0.000131993
0.00013262
0.000133145
0.000133616
0.000134024
0.000130803
0.000130706
0.000131146
0.000131712
0.000132251
0.000132713
0.000133094
0.000133408
0.000133672
0.000133879
0.000131891
0.000131942
0.000132155
0.000132453
0.000132764
0.000133048
0.000133289
0.000133487
0.000133645
0.000133764
0.000132633
0.000132683
0.000132798
0.000132958
0.000133133
0.000133299
0.000133444
0.000133562
0.000133655
0.000133722
0.000133103
0.000133134
0.000133197
0.000133283
0.000133379
0.000133472
0.000133555
0.000133623
0.000133675
0.000133712
0.000133386
0.000133403
0.000133436
0.000133481
0.000133532
0.000133582
0.000133627
0.000133664
0.000133693
0.000133713
0.000133547
0.000133556
0.000133573
0.000133596
0.000133622
0.000133647
0.000133671
0.00013369
0.000133705
0.000133715
0.000133635
0.000133639
0.000133647
0.000133658
0.000133671
0.000133684
0.000133695
0.000133705
0.000133712
0.000133717
0.00013368
0.000133682
0.000133686
0.000133691
0.000133696
0.000133702
0.000133708
0.000133712
0.000133715
0.000133717
0.000133701
0.000133702
0.000133703
0.000133706
0.000133708
0.000133711
0.000133713
0.000133715
0.000133717
0.000133717
0.000133709
0.00013371
0.00013371
0.000133711
0.000133713
0.000133714
0.000133715
0.000133716
0.000133717
0.000133717
0.000133716
0.000133716
0.000133716
0.000133716
0.000133716
0.000133716
0.000133716
0.000133716
0.000133716
0.000133716
0.000133716
0.000133716
0.000133716
0.000133716
0.000133716
0.000133716
0.000133716
0.000133716
0.000133716
0.000133716
0.000133716
0.000133716
0.000133716
0.000133716
0.000133716
0.000133716
0.000133716
0.000133716
0.000133716
0.000133716
0.000133716
0.000133716
0.000133716
0.000133716
0.000133716
0.000133716
0.000133716
0.000133716
0.000133716
0.000133716
0.000133716
0.000133716
0.000133716
0.000133716
0.000133716
0.000133716
0.000133716
0.000133716
0.000133716
0.000133716
0.000133716
0.000133716
0.000133716
0.000133716
0.000133716
0.000133716
0.000133716
0.000133716
0.000133716
0.000133716
0.000133716
0.000133716
0.000133716
0.000133716
0.000133716
0.000133716
0.000133716
0.000133716
0.000133716
0.000133716
0.000133716
0.000133716
0.000133716
0.000133716
0.000133716
0.000133716
0.000133716
0.000133716
0.000133716
0.000133716
0.000133716
0.000133716
0.000133716
0.000133716
0.000133716
0.000133716
0.000133716
0.000133716
0.000133716
0.000133716
0.000133716
0.000133716
0.000133716
0.000133716
0.000133716
0.000133716
0.000133716
0.000133716
0.000133716
0.000133716
0.00013414
0.000134189
0.000134229
0.000134255
0.000134261
0.00013425
0.000134226
0.000134193
0.000134152
0.000134104
0.000134056
0.000134124
0.000134173
0.000134178
0.000134131
0.000134042
0.000133922
0.00013378
0.000133623
0.000133457
0.000134012
0.000134059
0.00013408
0.000134045
0.00013395
0.000133812
0.000133647
0.000133471
0.000133293
0.000133117
0.000134037
0.000134065
0.000134054
0.00013399
0.000133883
0.000133753
0.000133618
0.000133493
0.000133389
0.000133314
0.000134133
0.000134173
0.000134145
0.000134063
0.000133952
0.000133835
0.000133734
0.000133662
0.000133634
0.00013367
0.000134303
0.000134404
0.000134374
0.000134262
0.000134117
0.000133975
0.000133856
0.000133773
0.00013374
0.000133774
0.000134562
0.000134804
0.000134785
0.000134615
0.000134388
0.000134156
0.00013394
0.000133746
0.000133583
0.000133466
0.000134935
0.000135452
0.000135457
0.000135193
0.000134822
0.000134419
0.000133997
0.000133552
0.000133101
0.000132732
0.000135474
0.000136473
0.000136501
0.000136092
0.000135513
0.000134846
0.000134066
0.000133122
0.00013205
0.000131169
0.000136017
0.000138053
0.000138268
0.000137834
0.000137146
0.000136274
0.000135097
0.000133356
0.000130642
0.000126268
0.000133994
0.000133961
0.000133935
0.000133948
0.000133991
0.000134051
0.000134103
0.00013409
0.000133858
0.00013298
0.000133831
0.000133843
0.000133843
0.000133849
0.000133861
0.000133869
0.000133855
0.00013379
0.000133634
0.000133391
0.000133762
0.000133777
0.000133781
0.000133781
0.000133777
0.000133765
0.000133736
0.000133682
0.0001336
0.000133519
0.000133735
0.000133745
0.000133746
0.000133742
0.000133732
0.000133715
0.000133689
0.000133652
0.00013361
0.000133577
0.000133725
0.000133729
0.000133728
0.000133722
0.000133712
0.000133697
0.000133677
0.000133654
0.000133631
0.000133616
0.000133721
0.000133722
0.00013372
0.000133714
0.000133706
0.000133695
0.000133682
0.000133667
0.000133654
0.000133646
0.000133719
0.000133719
0.000133717
0.000133712
0.000133707
0.000133699
0.00013369
0.000133682
0.000133674
0.000133669
0.000133718
0.000133718
0.000133716
0.000133713
0.000133709
0.000133704
0.000133699
0.000133694
0.000133689
0.000133686
0.000133717
0.000133717
0.000133716
0.000133714
0.000133711
0.000133708
0.000133705
0.000133702
0.000133699
0.000133697
0.000133717
0.000133716
0.000133716
0.000133714
0.000133713
0.000133711
0.000133709
0.000133707
0.000133705
0.000133704
0.000133716
0.000133716
0.000133716
0.000133716
0.000133716
0.000133715
0.000133715
0.000133715
0.000133714
0.000133714
0.000133716
0.000133716
0.000133716
0.000133716
0.000133716
0.000133716
0.000133716
0.000133715
0.000133715
0.000133715
0.000133716
0.000133716
0.000133716
0.000133716
0.000133716
0.000133716
0.000133716
0.000133715
0.000133715
0.000133715
0.000133716
0.000133716
0.000133716
0.000133716
0.000133716
0.000133716
0.000133716
0.000133715
0.000133715
0.000133715
0.000133716
0.000133716
0.000133716
0.000133716
0.000133716
0.000133716
0.000133716
0.000133715
0.000133715
0.000133715
0.000133716
0.000133716
0.000133716
0.000133716
0.000133716
0.000133716
0.000133716
0.000133715
0.000133715
0.000133715
0.000133716
0.000133716
0.000133716
0.000133716
0.000133716
0.000133716
0.000133716
0.000133715
0.000133715
0.000133715
0.000133716
0.000133716
0.000133716
0.000133716
0.000133716
0.000133716
0.000133716
0.000133715
0.000133715
0.000133715
0.000133716
0.000133716
0.000133716
0.000133716
0.000133716
0.000133716
0.000133716
0.000133715
0.000133715
0.000133715
0.000133716
0.000133716
0.000133716
0.000133716
0.000133716
0.000133716
0.000133716
0.000133715
0.000133715
0.000133715
)
;

boundaryField
{
    defaultFaces
    {
        type            empty;
    }
}


// ************************************************************************* //
