/*--------------------------------*- C++ -*----------------------------------*\
  =========                 |
  \\      /  F ield         | OpenFOAM: The Open Source CFD Toolbox
   \\    /   O peration     | Website:  https://openfoam.org
    \\  /    A nd           | Version:  11
     \\/     M anipulation  |
\*---------------------------------------------------------------------------*/
FoamFile
{
    format      ascii;
    class       volScalarField;
    location    "0.7";
    object      gradTz;
}
// * * * * * * * * * * * * * * * * * * * * * * * * * * * * * * * * * * * * * //

dimensions      [0 -1 0 1 0 0 0];

internalField   nonuniform List<scalar> 
5712
(
9304.63
30410.3
7467.96
31120.5
5492.63
31807.7
8425.76
47777.4
10311.8
65343.3
10387.7
48350.7
10168.3
40554.5
10587.1
36477.4
6372.28
4099.83
17158.8
10327.8
6101.48
3296.87
18199.7
8972.92
7271.22
5563.12
23182.9
17066.8
5503.8
4256.44
22755.4
17254.9
12984.2
5579.32
11327.8
5168.58
5464.17
12446.1
42599.4
11293.9
15297
4751.68
53556.8
14163.5
13808.5
4244.54
31208.4
9524.61
16002.9
5322.78
27824.8
8727.56
9924.65
4920.55
12809.3
5144.9
10772.4
5782.3
12404.8
4931.87
13106.7
7588.67
10650.6
4818.06
14983.9
5540.84
5047.08
1807.84
16825.1
11949.7
9988.97
7353.22
17038.9
13954.5
9075.82
7671.35
10163.9
7161.22
15227.3
10691.9
6251.28
4559.49
2742.27
2226.03
5531.44
4656.83
2370.78
2322.57
6446.41
4333.07
2945.87
1864.69
9588.39
5396.18
7549.83
8990.31
13778.4
9980.9
11470
15757.4
6040.24
2984.76
4244.58
5002.79
2735.44
1201.09
1616.6
1753.18
14141.7
24989.3
9389.01
27711.9
16181.6
24218.4
11370.6
28620.1
17845.2
21519.3
14257.6
27303.1
17349.2
18351.8
15064.7
15102.8
16230.2
18345.3
19373.7
21235.3
23079.4
32760.2
15026.1
13372.6
12916.7
14921.5
22550.3
29226.5
26282.3
33670.7
32718.4
26707.1
24864.2
32972.5
31787.5
22890.3
22488.1
30531.5
30296.2
13615.7
10988.9
14922.1
13553.3
17545.6
16669
20030.2
20019.7
27401.1
28796.9
12539.4
11441.9
13740.7
14515.2
15478.1
17826.1
18165.9
21700.4
23702.3
28710.3
10970
8558.81
7129.72
8604.51
13155.6
15023.5
8735.93
13171.4
6702.36
8241.51
10490.5
8673.75
1819.92
5468.75
535.882
1678.37
4203.58
8503.78
1161.64
2635.5
1266.78
5064.01
303.481
1533.59
7006.92
6871.21
8211.07
5318.69
11485.3
9347.38
13731.7
9833.41
1997.67
3659
4052.02
2427.3
1874.48
2361.98
2694.37
2001.76
21230.6
13003.2
4187.82
23854.3
13848.7
4556.99
20371.8
12840.6
4413.33
23286.9
13802.9
4544.67
18600.7
11768.3
3903.58
22440.1
13707
4583.01
7870.5
4777.22
1476.62
11351.7
7590.88
2586.98
14542.8
9915.5
3403.74
17534.2
11470.7
3827.36
21995.9
13887.6
4795
8877.37
5511.56
1934.5
11403.2
8297.88
3165.42
14406.8
10540.1
3921.94
17954.7
12602
4554.68
22316.8
14202.3
5081.25
242.586
2029.84
2779.94
4109.5
2546.03
2798.73
6254.88
5821.67
570.9
873.981
608.419
907.725
388.429
1208.62
747.618
1598.89
2785.65
1404.6
3725.72
2221.4
1862.95
3125.49
3241
55.7346
6788.92
984.425
-2909.4
-559.421
1148.86
311.473
351.41
-168.173
8314.22
3277.77
2218.11
1202.66
8470.62
3369.6
2797.74
1495.64
8431.27
3574.26
3874.51
2287.19
2497
1497.94
475.199
532.283
13041.9
11220.9
5880.81
5907.35
15344.2
14030.3
7353.86
7165.73
4667.32
4651.98
10253.3
8151.86
3139.09
3298.81
1238.91
1671.58
4193.03
4092.6
1789.52
2060.3
2336.41
2624.67
802.817
1412.28
3695.62
2081.82
3522.74
1964.17
6148.28
2871.21
5501.74
2843
1850.92
1322.19
2042.69
1140.74
560.66
555.295
1093.63
527.899
9402.22
5504.52
4027.76
3481.99
9457.36
5829.51
4022.78
3480.6
10120.4
6499.88
4084.82
3473.52
14315.5
16955.7
11856.2
7056.82
3154.96
15932
13253.2
11026.7
8030.77
3995.5
14829.6
12134
8734.09
5884.23
2840.89
3745.6
2692.13
2996.95
2752.94
4158.28
2889.67
3146.95
2849.03
4884.44
3384.96
3385.92
3042.69
11878.9
8458.01
9793.09
6612.59
6777.06
5066.52
5428.07
4105.76
3298.27
3210.35
9929.07
8589.39
7829.77
6574.18
5861.51
4949.17
4324.24
3819.14
2523.13
3027.13
6957.77
4703.53
4453.83
2808.73
10038
7623.32
6706.39
5467.75
3194.84
1945.41
4807.07
3396.85
4152.38
1984.58
1167.52
615.904
4849.38
3542.86
1303.44
1098
3208.24
1389.66
971.811
448.904
2142.88
1767.13
1365.79
1802.59
3128.59
2600.23
1783.06
2285.41
2165.15
1215.41
982.641
1221.47
436.282
162.535
-183.417
67.1291
1677.87
705.495
204.767
1690.43
475.85
127.755
1862.66
828.83
251.799
1780.73
528.149
148.026
2093.11
989.85
275.042
1913.49
595.227
152.45
5522.06
3108.61
880.853
4065.65
2133.89
607.682
3184.66
1607.72
475.07
2505.1
1194.64
311.247
2048.61
637.086
132.552
6472.21
3543.86
1113.85
4821.53
2479.96
750.588
3622.46
1816.26
548.5
2742.7
1244.03
344.856
2237.49
622.527
162.611
1079
333.765
83.6157
-2.83318
446.659
142.111
39.7853
4.52369
1119.57
352.14
96.5419
8.6611
538.234
177.803
71.4764
27.3063
1166.75
372.735
123.76
31.5993
828.766
290.157
75.0931
11.5603
499.324
200.962
18.7917
-20.0894
306.723
152.916
48.2835
16.1486
857.005
296.858
66.1153
-21.9327
681.997
229.584
80.0877
-10.8918
1091.32
351.759
107.158
7.68527
925.72
293.802
103.573
-17.241
584.952
221.813
55.3018
-8.3975
453.234
165.362
65.0979
5.41369
305.715
136.071
50.1565
19.4628
227.359
98.4866
46.6266
18.2289
1328.7
405.861
103.116
-16.1624
1223.01
367.873
131.843
-19.0894
1314.97
403.047
104.262
-16.1093
1186.71
355.349
130.827
-19.7103
1272.98
391.546
124.572
1.83506
1116.6
332.018
139.721
-7.79899
1085.27
341.782
135.688
36.385
1214.92
359.796
175.558
-5.12125
923.627
288.01
122.564
10.9082
885.817
250.456
105.791
-3.01671
334.287
89.2597
30.4575
5.15734
933.077
265.263
109.952
-1.85882
356.376
95.9946
34.1797
7.55517
978.282
279.99
120.191
2.40249
377.046
103.019
37.7976
9.91784
896.904
259.024
126.256
7.61006
377.224
104.451
44.9448
13.7382
817.471
244.37
121.148
14.0639
344.075
103.716
52.0062
17.6979
501.092
156.11
58.6518
4.63122
282.309
100.83
41.9502
16.3252
628.415
185.981
81.6773
7.60339
314.95
104.217
48.4563
17.8884
349.709
119.413
44.0802
6.20716
208.615
82.2391
32.3273
14.0661
180.345
75.4683
34.8459
13.7427
122.281
57.8314
26.3367
13.4399
1.17522
0.728112
0.312987
0.122074
0.0559888
0.939285
0.418009
0.169489
0.0652692
0.0298601
3.34027
1.47437
0.585671
0.223881
0.102379
3.40236
1.28312
0.48944
0.185129
0.0845233
5.08719
2.23325
0.887916
0.340891
0.156763
8.82432
3.76893
1.46751
0.560222
0.257701
8.34544
3.88023
1.56293
0.609351
0.284591
10.9429
4.65905
1.84882
0.723617
0.340968
5.16288
2.78812
1.15209
0.450155
0.209472
5.23474
2.56773
1.04256
0.406075
0.189023
4.90524
2.44249
0.983748
0.378955
0.174681
7.00619
2.9598
1.12614
0.424891
0.194265
5.53744
2.98728
1.25559
0.497923
0.234459
6.29587
2.83791
1.14725
0.450247
0.211421
8.62779
3.68199
1.46871
0.57726
0.272858
7.24964
3.01922
1.20154
0.473045
0.223995
-0.0180241
0.50371
0.240711
0.0953545
0.0437969
-0.28224
0.182636
0.093091
0.0370027
0.0169645
1.38282
1.00014
0.416904
0.15993
0.0729118
0.238136
0.370055
0.158625
0.0607563
0.0276024
2.77206
1.45434
0.58307
0.222701
0.101852
2.30386
0.989552
0.369129
0.13668
0.0615774
6.36644
2.61572
0.986884
0.369506
0.167905
4.46246
1.7366
0.634591
0.233947
0.105408
9.35943
3.39773
1.23152
0.454349
0.205223
3030.1
6929.34
3177.75
6918.64
3593.35
6911.31
4187.89
7095.96
4208.4
7118.99
1726.48
2503.46
2784.28
4234.35
906.027
1230.63
235.225
343.346
15817.8
3880.4
924.66
220.426
62.1894
4366.28
1204.49
330.477
79.7805
19.919
15486.9
3777.05
900.963
213.511
60.7904
4454.43
1337.53
340.989
84.0428
23.4445
14531.3
3533.65
842.849
200.179
57.265
4318.6
1288.33
327.581
80.4003
22.528
13004.6
3151
752.945
179.536
51.652
4148.11
1213.11
305.123
74.3824
20.7766
10618.8
2573.89
618.627
148.545
43.083
3839.54
1097.61
274.114
66.6458
18.635
4831.92
1233.61
304.142
74.2901
21.8521
1842.11
535.531
133.087
31.9184
8.94529
7324.4
1837.81
447.889
108.388
31.6527
2728.86
782.925
195.977
47.7333
13.4767
2800.07
722.132
179.35
44.1586
13.0666
1022.74
308.451
76.3166
18.2879
5.17054
946.75
243.674
60.7847
15.0457
4.46675
372.076
104.265
24.1865
7.11985
1.60066
-1139.2
-348.084
5069.64
-1550.47
818.708
876.9
2527.4
3265.81
2069.9
3943.21
3488.9
5398.47
4387.58
5432.02
2226.49
2983.47
2290.53
2722.11
1186.59
1233.74
2014.93
1250.6
615.272
49.7039
-100.727
-114.936
204.494
14249
4860.47
5132.83
3959.83
750.616
733.845
3319.05
-50.3815
249.044
86.7548
-36.3762
7664.93
4208.54
2075.7
1395.93
3350.57
2062.01
764.925
1292.35
-329.659
38.8918
1029.24
894.36
8553.49
3719.72
5374.25
2597.68
3346.18
4857
1519.58
4.11522
1268.55
1239.91
870.762
647.503
493.398
308.714
896.18
648.318
452.403
285.561
112.06
525.564
418.277
299.962
180.005
60.1627
43.357
35.2682
25.7958
15.6867
5.25858
-89.0882
-73.2393
-53.6475
-32.3835
-10.7792
-101.739
-83.7401
-61.4355
-37.1446
-12.3754
177.578
144.238
105.677
64.5392
21.7785
9346.98
6957.81
4958.45
3545.34
2440.64
3639.02
2636.29
1947.77
1283.32
550.944
3717.59
2693.9
1911.37
1216.22
505.181
2794.14
1920.74
1348.67
844.3
308.31
580.228
393.307
297.914
192.828
71.652
644.045
528.597
392.675
244.668
84.9002
2618.3
1967.66
1363.88
825.514
297.583
92.903
157.434
149.24
106.975
40.2588
222.738
189.508
147.36
95.8555
34.274
136.2
153.322
138.405
96.9165
35.6
-43.256
-40.9175
-31.0435
-18.1124
-5.5993
5113.12
3952.86
2874.44
2094.1
1450.82
3081.78
2241.19
1600.96
1014.71
406.681
1739.18
1373.02
990.942
608.028
211.987
1160.37
907.796
648.849
394.099
135.655
2673.07
2019.4
1407.14
846.404
297.03
1730.9
1362.81
976.85
592.465
201.397
640.137
502.9
359.632
217.457
73.8979
1094.47
865.292
618.766
371.931
124.96
-277.065
-214.576
-147.998
-84.9884
-27.3844
31.3452
24.6238
18.776
12.5866
4.64902
865.748
681.513
487.269
294.285
99.8645
758.572
601.763
432.527
261.517
88.3657
5128.78
3333.63
2426.61
1769.83
1176.3
2655.96
1893.33
1305.45
815.707
321.527
3681.86
2712.45
1904.75
1236.2
508.259
1953.4
1459.62
1020.83
633.978
241.598
2708.9
2072.75
1458.86
881.096
304.895
3543.15
2489.43
1752.35
1099.15
402.973
1277.09
1003.2
714.592
429.284
144.624
0.388187
-1.40445
-1.08151
-0.0123055
0.274044
1060.36
832.188
595.478
361.109
123.176
-38771.3
-61766.5
-32379.5
-49846.6
-33706.7
-67708.2
-40117.6
-86137.3
-24963.4
-17489.3
-27216.7
-17514.1
-22601.4
-14843.8
-27102.9
-14908.3
-33078.3
-25753
-46941.6
-34785.6
-28550.1
-23530.7
-39003.5
-30103.7
-22390.1
-23557.7
-18642.5
-18536.8
-22650
-20605.5
-50943.2
-14125
-20157.4
-7787.19
-60898.9
-17152.5
-17909.3
-7104.72
-38847
-12261.2
-20707.1
-8126.91
-35221.3
-10865.4
-18045.1
-7396.28
-22272.3
-8184.85
-17253.5
-7741.96
-19300.6
-7117.33
-17778.1
-8918.17
-15432.8
-6282.6
-19163.7
-6898.86
-6706.57
-2397.58
-14656.3
-10493
-12618.1
-8182.1
-12488.9
-10373.9
-10837.7
-7917.81
-13139.3
-8141.17
-15631.5
-10677.1
-8736.61
-5579.84
-4834.62
-3250.84
-7511.22
-5358.17
-4160.12
-3140.36
-8998.38
-5359.18
-5003.75
-2849.86
-11852.7
-6162.95
-8293.24
-9285.91
-15305.4
-10517.9
-11847
-15854.7
-7962.67
-3646.54
-5003.62
-5312.11
-4271.16
-1753.86
-2337.51
-2044.38
-18529.2
-23332
-10700.6
-26911.7
-19255.9
-22232
-12323.2
-27461.8
-19388.8
-20037.9
-14677.6
-25975.9
-12610.6
-9994.03
-14433.1
-16358.3
-16552.3
-13342
-16144.3
-19533
-21879.1
-31285
-9617.91
-10635.4
-12003
-14583.5
-22042
-22603.2
-15891.6
-29035.8
-22589.5
-20944.3
-15593.2
-28611.6
-22537.2
-18461.2
-14687
-26715
-22384.8
-10834.5
-8661.85
-12249.1
-10070.6
-14168.3
-11942.2
-16196.3
-14199
-24242.1
-22534.6
-9860.79
-8854.44
-11045.6
-10589.7
-12885.7
-13142.8
-15810.5
-16660.4
-21819.4
-23365.2
-9433.11
-7459.36
-6904.94
-8214.22
-10564.9
-13138
-7961.52
-12104.7
-6809.96
-8145.26
-9749.87
-7938.5
-2126.52
-5509.27
-1010.6
-1920.87
-4219.44
-8223.67
-1447.79
-2666.63
-1683.51
-5250.56
-834.448
-1845.84
-7189.95
-6845.07
-8326.91
-5243.51
-11131.3
-8739.2
-13492.5
-9149.89
-2357.14
-3847.11
-4272.5
-2537
-2317.95
-2645.97
-2967.53
-2193.77
-9760.69
-3354.25
-13313.2
-4514
-9978.48
-3519.54
-13630.8
-4857.33
-9920.53
-3464.64
-14318.9
-5424.27
-5352.83
-1663.68
-7086.35
-2628.85
-8493.89
-3219.49
-10532.2
-3903.63
-15189.7
-5934.63
-6342.64
-2139.08
-7251.86
-3252.44
-9157.72
-3996.92
-12051
-5003.99
-16064.9
-6022.55
-8652.05
-7965
-7020.36
-6688.36
-14423.9
-11095.5
-12031.1
-9950.14
-5451.13
-4151.36
-2303.05
-1522.49
-5328.72
-4544.23
-2334.7
-2133.34
-4569.61
-6143.78
-5095.9
-6512
-4840.73
-3778.72
-5199.06
-1943.74
-9692.91
-3422.7
1309.87
-1160.54
-2386.92
-1700.79
-1103.42
-912.108
-2515.49
-1347.49
-1008.76
-481.21
-2806.94
-1480.96
-1593.52
-671.262
-3314.69
-1804.54
-2636.03
-1215.88
-2264.99
-842.095
-714.023
-43.1852
-6767.11
-6881.32
-5565.36
-4919.73
-9453.44
-9253.7
-8054.2
-6675.9
-3648.44
-3514.14
-4805.42
-4961.37
-3794.93
-3143.32
-2128.86
-1814.02
-5506.47
-4335.09
-3151
-2541.98
-2416.11
-2211.57
-1226.02
-1284.15
-2267.58
-1194.18
-2523.62
-1350.72
-2931.95
-1614.6
-3526.95
-1947.96
-1392.4
-751.134
-1550.9
-725.771
-485.352
-143.944
-819.886
-211.772
-3243.47
-3485.52
-2006.32
-2420.83
-3342.07
-3666.96
-2059.7
-2426.93
-3739.61
-3716.72
-2205.46
-2361.6
-4530.64
-7133.94
-3514.88
-2453.59
-1551.94
-10065.7
-6932.44
-5509.74
-4352.41
-2775.45
-8089.28
-6250.03
-4609.71
-3434.38
-1826.74
-3466.96
-2947.49
-3056.15
-4190.52
-3543.6
-2893.45
-3007.73
-4080.29
-3690.47
-3131.01
-2890.57
-3907.37
-9148.45
-6984.83
-7424.56
-5522.63
-5552.6
-4199
-4377.69
-3559.24
-2788.88
-3655.81
-7337.91
-6764.7
-5559.2
-5203.84
-4145.42
-3916.2
-3197.76
-3217.11
-1855.27
-3051.58
-4601.05
-3323.02
-3383.31
-1832.23
-7161.43
-6000.4
-5599.7
-4367.66
-2295.84
-1144.28
-3140.82
-2332.94
-3727.53
-1554.8
-1053.25
-412.333
-4571.58
-3137.58
-1369.19
-966.686
-2754.71
-1001.31
-748.076
-228.759
-1509.28
-1237.52
-1017.45
-1566.37
-2113.07
-1918.3
-1317.63
-2052.74
-1770.37
-922.084
-707.241
-1045.43
-171.514
37.5341
414.053
86.2667
-1973.4
-604.02
-2697.62
-255.973
-2004.87
-693.048
-2684.76
-279.09
-1918.55
-580.288
-2499.25
-205.722
-4074.17
-1141.93
-3253.2
-929.927
-2751.54
-889.713
-2110.74
-523.68
-2376.71
-300.826
-4899.54
-1276.51
-3740.81
-837.249
-2926.1
-671.061
-2356.15
-427.956
-2474.23
-341.979
-546.141
-171.841
-28.0534
26.8903
-211.933
-66.9211
-14.8547
4.89956
-573.633
-176.028
-33.7933
18.4254
-228.394
-66.3239
-33.1076
-13.3092
-625.269
-183.878
-52.9333
-0.96999
-329.482
-78.9778
15.0838
28.9153
-68.6695
11.7503
80.3183
65.1875
139.982
91.0087
66.6149
34.9684
-449.248
-119.343
14.7876
61.9311
-357.37
-76.9144
-8.77317
48.8342
-645.158
-180.015
-35.6557
27.4048
-523.528
-123.863
-28.2991
60.5263
-232.947
-46.0583
27.0452
47.1848
-189.996
-28.2664
2.8603
30.0724
16.834
40.0749
36.3701
21.6532
4.41592
30.4073
20.0703
16.8894
-751.848
-226.952
-38.155
49.1229
-817.716
-224.506
-85.4841
53.4265
-741.986
-219.175
-35.6215
51.1824
-796.569
-215.588
-84.5189
54.0969
-721.629
-205.587
-56.9358
31.3891
-747.543
-198.578
-95.7956
41.585
-548.04
-147.339
-61.2136
0.279923
-804.076
-205.022
-120.569
47.5422
-506.868
-120.061
-49.9691
33.9614
-679.691
-157.824
-75.8533
28.2627
-279.286
-57.6173
-16.2776
3.48183
-659.69
-152.139
-73.2241
29.0894
-274.391
-56.1959
-17.1686
2.31389
-610.156
-138.116
-76.2666
26.4189
-250.978
-50.1264
-15.6763
2.4938
-537.649
-120.732
-83.667
19.8567
-224.029
-43.7242
-19.9345
0.570564
-453.645
-98.0154
-71.0767
14.3638
-158.214
-28.0836
-21.5222
-0.527453
-286.552
-50.3993
-8.0051
25.9277
-77.2077
-1.43206
3.21383
8.73331
-384.476
-78.0527
-35.2498
21.0777
-102.299
-11.3723
-8.8588
4.05312
-154.761
-14.25
9.10632
25.074
-33.6088
12.6502
13.9818
11.9433
0.0349823
27.8314
18.5533
17.304
31.8403
32.5441
19.2717
12.3348
4.64467
0.953793
0.236365
0.0749727
0.0334803
1.74232
0.426255
0.117288
0.0393248
0.0179674
4.74057
1.2264
0.375053
0.135264
0.0637858
2.21297
0.806781
0.289661
0.111939
0.0540975
5.89371
1.72304
0.57765
0.217694
0.104062
7.05064
2.4688
0.930019
0.367714
0.178496
9.0397
3.18311
1.20101
0.47071
0.225848
10.3443
4.1628
1.64176
0.64882
0.309929
8.43189
2.43067
0.844246
0.322493
0.154101
7.14037
2.15561
0.763489
0.293576
0.140528
7.03628
1.91702
0.649951
0.247475
0.118702
5.71463
1.77778
0.666968
0.265614
0.129723
9.29919
2.94339
1.05358
0.403624
0.191749
7.03559
2.48639
0.928338
0.361193
0.172596
8.53735
3.41942
1.3416
0.528734
0.252183
6.93591
2.81818
1.10759
0.436359
0.208075
5.72924
0.922369
0.199431
0.0590556
0.0256715
2.81098
0.3891
0.0781174
0.0225061
0.00971539
5.67042
1.04869
0.275172
0.0935291
0.0433183
2.77556
0.428239
0.103696
0.0344093
0.0158639
5.40911
1.20442
0.367624
0.134646
0.0639843
2.41351
0.560874
0.189587
0.0738042
0.0361077
5.39166
1.51756
0.542821
0.213555
0.104211
2.89974
0.829962
0.313062
0.126588
0.0626216
3.92544
1.51408
0.617661
0.255019
0.126703
-2805.81
-5635.49
-2976.2
-5709.66
-3390.54
-5852.73
-3848.94
-6102.19
-3791.1
-6168.09
-1719.98
-2427.46
-2602.31
-3868.13
-1001.85
-1287.06
-382.929
-459.324
-15468.3
-3819.81
-916.207
-219.699
-62.3013
-4221.21
-1184.45
-327.255
-79.4702
-19.9603
-15140.6
-3717.87
-892.791
-212.841
-60.9035
-4310.01
-1313.8
-337.537
-83.6939
-23.4695
-14199.9
-3479.06
-835.538
-199.618
-57.3786
-4176.47
-1264.42
-324.099
-80.0552
-22.5515
-12722.8
-3107.08
-747.396
-179.186
-51.7728
-4002.26
-1189.05
-301.734
-74.0568
-20.7988
-10442.3
-2548.01
-615.724
-148.49
-43.2106
-3699.77
-1076.07
-271.267
-66.4038
-18.6647
-4840.88
-1235.7
-304.927
-74.5677
-21.953
-1815.33
-531.253
-132.752
-31.9914
-9.00165
-7276.48
-1830.68
-447.466
-108.572
-31.7724
-2645.3
-770.072
-194.39
-47.6422
-13.5162
-2824.09
-726.773
-180.413
-44.4255
-13.1457
-1036.36
-311.581
-77.1833
-18.539
-5.25165
-971.94
-248.328
-61.7741
-15.2724
-4.52909
-406.511
-111.667
-25.8022
-7.49303
-1.70051
-1468.39
-2810.4
-8408.77
-819.859
-8976.33
-3983.63
-8767.14
-4207.38
-15973.3
-8535.28
-17738.1
-9306.65
-26.0868
-80.3833
-127.762
-153.549
-118.096
74.9862
-48.4661
-149.744
-240.438
-292.404
-248.644
-22.1309
-18.7846
-17.6724
-55.9836
-54.0087
-80.441
-82.8401
-69.0206
-81.9797
-38.6439
-78.1048
41.1469
-33.7148
607.361
1394.9
2377.42
1692.11
1478.31
570.176
471.47
1255.63
2154.02
2609.27
2183.65
874.463
-23.2189
-19.3043
-14.3686
-8.82036
-2.96955
-71.5709
-59.5334
-44.3382
-27.2325
-9.17138
-113.655
-94.4415
-70.2637
-43.1214
-14.5162
-136.484
-113.302
-84.2137
-51.643
-17.3775
-105.306
-87.734
-65.4247
-40.2128
-13.546
63.4038
49.6326
34.8571
20.5107
6.76517
-43.0393
-35.6841
-26.4855
-16.2221
-5.45483
-132.974
-110.256
-81.8494
-50.1445
-16.8645
-213.131
-176.35
-130.649
-79.919
-26.8571
-258.519
-213.261
-157.537
-96.1606
-32.2804
-219.289
-180.4
-132.924
-80.9922
-27.1659
-20.7149
-18.1491
-14.1228
-8.92345
-3.04313
-16.7505
-13.9585
-10.4145
-6.40548
-2.15879
-15.7753
-13.163
-9.83442
-6.0554
-2.04207
-49.9325
-41.6229
-31.0671
-19.1147
-6.44346
-48.197
-40.2024
-30.0268
-18.4844
-6.2328
-71.7098
-59.7395
-44.5609
-27.4028
-9.23458
-73.8208
-61.4682
-45.8265
-28.1691
-9.49063
-61.6742
-51.52
-38.53
-23.7391
-8.0074
-72.9742
-60.679
-45.1706
-27.7312
-9.33646
-35.0966
-29.8438
-22.6757
-14.1228
-4.78788
-69.4247
-57.6124
-42.7875
-26.213
-8.81431
34.2726
26.3494
18.1852
10.5709
3.46834
-30.437
-25.6611
-19.301
-11.9107
-4.01521
523.994
420.842
303.588
182.453
60.8664
1191.23
947.966
679.651
407.682
136.237
1991.58
1560.55
1109.14
665.179
224.046
1399.21
1087.85
772.636
464.979
157.073
1250.3
974.325
688.013
408.606
130.716
501.249
398.121
284.752
169.671
52.6158
406.721
326.598
235.547
141.526
47.2019
1075.76
858.403
616.457
369.856
123.455
1825.8
1443.13
1030.06
616.992
206.383
2187.72
1713.53
1216.76
728.33
244.324
1827.51
1426.97
1010.74
604.102
201.874
736.393
578.25
411.975
247.374
82.6619
29.8475
85.1908
134.756
164.229
134.778
-46.3407
54.699
157.398
250.437
304.56
261.685
35.903
21.3669
19.7253
59.4309
57.0685
85.5175
87.7732
76.2966
88.5126
52.2518
78.4455
-3.4962
48.2214
-560.867
-1324.34
-2263.99
-1575.54
-1387.74
-501.24
-453.745
-1228.94
-2107.24
-2546.16
-2115.3
-806.069
26.6437
22.2344
16.6169
10.2357
3.45282
75.9492
63.2792
47.2123
29.0415
9.78905
120.023
99.8861
74.4386
45.7478
15.4127
146.195
121.592
90.56
55.6298
18.7372
120.436
100.609
75.247
46.3656
15.6411
-37.6087
-27.8722
-18.4083
-10.2837
-3.29726
48.7247
40.5576
30.2323
18.5843
6.26209
139.963
116.254
86.4659
53.0575
17.8605
222.274
184.21
136.708
83.7471
28.1668
269.649
222.843
164.933
100.838
33.8815
231.218
190.656
140.829
85.9851
28.8739
33.1737
28.7179
22.1581
13.9428
4.7496
19.0995
15.9654
11.9522
7.37233
2.48872
17.6415
14.7562
11.0543
6.82192
2.30354
53.0671
44.2997
33.1171
20.403
6.88297
50.9779
42.5759
31.8435
19.6256
6.62202
76.3209
63.6719
47.568
29.2904
9.87808
78.3024
65.2908
48.7503
30.0046
10.1165
68.2632
57.1182
42.7944
26.4074
8.91544
78.9039
65.7312
49.0301
30.1518
10.1613
47.4014
40.2784
30.6077
19.0776
6.4725
69.9696
58.3161
43.5092
26.7565
9.01635
-0.451129
2.09765
3.25541
2.73036
1.03729
43.6101
36.8846
27.8717
17.2835
5.84582
-482.508
-386.232
-277.73
-166.533
-55.5
-1128.53
-895.882
-640.911
-383.934
-128.26
-1889.72
-1474.75
-1044.44
-625.116
-210.546
-1286.69
-986.143
-690.809
-411.582
-138.333
-1155.46
-883.141
-610.762
-355.964
-111.508
-423.554
-319.073
-214.899
-120.657
-34.4923
-391.003
-313.582
-225.899
-135.626
-45.2211
-1052.27
-839.123
-602.298
-361.272
-120.591
-1783.75
-1407.7
-1003.32
-600.414
-200.78
-2128.41
-1661.1
-1175.31
-701.652
-235.083
-1759.79
-1364.06
-958.807
-569.51
-189.611
-666.1
-510.799
-354.795
-208.555
-68.7661
-1942.18
-1173.69
-504.305
35.9382
204.969
256.757
-47.8709
-12276.8
-3020.35
-3954.46
-1848.63
-279.429
-3357.23
136.693
1240.37
417.596
-6788.22
-3396.78
-1293.91
-1007.1
-3068.26
-1628.35
-596.019
-1071.98
771.593
261.695
-743.641
-594.42
-8230.07
-3567
-4870.54
-2333.93
-3081.26
-4158.59
-1278.9
246.222
-921.97
-1101.8
-711.737
-496.165
-379.874
-261.373
-796.058
-539.74
-352.456
-212.937
-83.9142
-426.234
-335.081
-237.548
-141.454
-47.1447
34.0268
30.2492
23.8947
15.2874
5.26051
182.642
151.829
112.801
69.0445
23.1911
228.424
189.606
140.73
86.1091
28.9213
-36.2684
-24.8749
-15.4115
-8.4287
-2.7588
-7985.17
-6014.53
-4364.1
-3298.94
-2541.26
-2018.22
-1292.1
-966.23
-700.101
-355.767
-2745.3
-1909.65
-1345.64
-882.333
-401.681
-1204.28
-755.479
-542.694
-363.056
-137.808
-221.306
-166.007
-116.994
-73.0065
-26.7308
-2641.31
-1990.1
-1381.4
-838.251
-303.624
134.38
117.106
86.8488
50.9524
15.8254
1033.74
802.85
562.978
331.809
109.555
369.187
302.012
219.834
131.996
43.6746
-4329.57
-3336.3
-2442.19
-1863.97
-1428.57
-2357.06
-1633.34
-1147.79
-739.6
-318.136
-1040.11
-790.864
-557.673
-342.634
-123.208
-814.177
-619.889
-434.616
-262.859
-91.7331
-2443.73
-1845.54
-1288.98
-779.938
-276.756
-1334.69
-1024.93
-719.924
-432.41
-147.084
-486.943
-372.638
-260.513
-155.599
-52.9186
-898.23
-702.052
-497.259
-297.418
-99.9303
670.693
542.149
392.385
235.565
78.2421
236.522
198.575
147.936
90.1627
30.0431
-611.035
-470.009
-330.309
-198.222
-67.6392
-490.824
-378.551
-266.009
-159.16
-53.9199
-4823.48
-3060.4
-2208.89
-1635.49
-1145.6
-2504.61
-1752.69
-1189.66
-738.946
-294.404
-3178.1
-2269.21
-1554.42
-1012.79
-424.646
-1702.08
-1234.87
-842.574
-519.428
-202.463
-2470.47
-1871.63
-1307.5
-787.791
-273.616
-2920.83
-1959.37
-1354.38
-855.636
-322.659
-1062.52
-824.307
-581.073
-347.242
-117.052
223.233
188.236
140.955
86.3378
28.8833
-748.286
-569.493
-397.782
-238.876
-81.9468
-16.2681
-39.3038
-66.2253
-114.99
-205.654
-348.427
-28246.7
-25087.4
-23281.6
-26423.3
-20958.4
-16744.6
-18404.2
-14077.8
-25392.8
-22934.5
-23483.4
-22641.2
-20778.1
-17892.1
-22055
-23738.6
-21366.5
-19109
-21427.2
-18120.4
-15377
-15742.7
-12660.5
-23236.7
-21383.9
-21513.9
-20217.6
-18799.7
-17448.7
-18555.6
-19123.1
-17625.9
-15411.7
-16801
-15410.7
-13338.3
-13333.7
-11392
-19850.5
-18892.7
-18542.7
-17726.3
-16263.7
-14989.7
-16108.3
-13801.4
-13034.1
-11119.6
-11784.7
-11760.2
-10591.5
-10076.7
-9082.32
-14876.1
-15290.5
-14075.2
-14489.6
-12663.7
-11520.3
-12986.7
-9016.36
-8638.11
-7251.8
-7574.18
-7985.88
-7252.64
-6727.64
-6144.1
-9997.69
-10176.8
-9556.51
-9621.51
-8760.71
-7962.87
-8781.68
-3279.48
-3166.2
-2639.95
-2738.13
-2967.47
-2756.55
-2479.33
-2288.94
-3747.59
-3840.66
-3545.08
-3502.01
-3291.56
-3022.42
-3294.32
-10206.8
-9993.33
-15586.3
-16804.4
-9478.17
-8373.75
-13656
-11079.7
-7268.4
-4909.93
-7263.39
-5028.81
-7241.92
-7037.06
-5282.91
-10097.2
-9568.79
-14004.4
-15241.7
-8855.78
-7948.71
-12189.6
-10376.7
-7217.73
-4115.22
-7120.91
-4424.52
-6513.3
-6350.61
-4949.62
-9094.22
-8634.16
-11913.8
-12780.2
-8047.36
-7379.14
-10623.1
-9273.99
-5878.88
-3970.98
-5851.26
-4316.51
-5403.48
-5452.49
-4664.33
-7162.81
-6850.08
-8936.17
-9415.42
-6437.87
-5927.01
-8206.4
-7370.92
-5175.05
-3255.47
-5089.98
-3559.05
-4716.3
-4718.5
-3832.73
-4827.47
-4643.42
-5893.66
-6143.98
-4307.73
-3921.69
-5503.68
-4978.51
-3475.41
-2288.91
-3414.03
-2498.56
-3177.33
-3148.01
-2593.31
-1774.02
-1710
-2150.39
-2230.73
-1584.73
-1438.01
-2023.11
-1841.68
-1166.27
-824.108
-1211.13
-919.98
-1162.3
-1142.56
-932.548
9264.04
29793.1
7428.52
31119.7
5472.46
31810.7
8420.3
47786.9
10305.4
65356.2
10367
48346
10125.8
40533.2
10560.2
35707.3
6363.32
4097.73
17160.1
10328
6099.38
3296.55
18203.4
8974.18
7226.22
5525.53
22723.9
16751.3
5477.6
4245.25
22776.2
17279.9
12992.9
5571.11
11328.7
5165.68
5458.45
12457.3
42611.1
11295.4
15299.6
4751.53
53568.9
14165.8
13811
4245.01
31225.3
9527.62
16007.6
5323.45
27847.5
8731.62
9840.1
4878.41
12594.1
5062.61
10773.3
5783.46
12425.1
4939.64
13105.7
7589.12
10657.3
4821.32
14996.6
5545.67
5050.1
1809.04
16823.9
11948.9
9988.78
7352.99
17037
13953
9075.89
7671.08
10164.2
7161.26
15226.5
10691.6
6251.7
4559.47
2741.65
2225.7
5532.05
4656.89
2370.59
2322.42
6447.52
4333.19
2945.5
1864.4
9589.71
5397.02
7550.16
8990.77
13778.4
9981.45
11470.3
15758.1
6042.17
2985.61
4244.87
5003.08
2735.63
1201.24
1616.46
1753.19
14075.6
24995.9
9339.49
27714
16184.6
24212.9
11376.4
28616
17845.5
21518.1
14259.1
27302.5
17348.1
18349.3
15064.3
15103.6
16231.5
18343
19372.3
21234.4
23079
32760.5
15024.2
13371.6
12916.4
14921.8
22551.1
29279.4
26356.4
33698.6
32700.6
26696.1
24856.7
32959.9
31780.4
22886.4
22482.8
30530
30294.2
13614.1
10987.7
14920.8
13552
17544.2
16667.2
20028.1
20017.2
27400.4
28795.9
12538
11440.7
13739.7
14514
15477.3
17824.9
18165.3
21699.4
23702.6
28709.9
10969.4
8558.52
7129.48
8604.45
13154.4
15022.5
8735.4
13170.8
6702.34
8241.66
10490.3
8673.69
1819.75
5468.72
535.722
1678.29
4203.37
8503.48
1161.56
2635.4
1266.69
5064.09
303.319
1533.53
7007.11
6871.42
8211.42
5318.87
11485.4
9347.51
13732.1
9833.6
1997.71
3659.11
4052.19
2427.38
1874.46
2362.01
2694.44
2001.79
21283.3
13033.1
4205.9
23875.9
13870.5
4564.32
20366.3
12839.8
4413.52
23282.5
13800.9
4544.74
18597.1
11766.7
3903.3
22437.8
13705.4
4582.64
7869.6
4776.64
1476.44
11350.5
7590.08
2586.72
14541.1
9914.42
3403.4
17531.9
11469.4
3826.98
21994.5
13886.4
4794.59
8876.41
5510.94
1934.27
11402.1
8297.02
3165.09
14405.5
10539.1
3921.55
17953.4
12600.9
4554.26
22315.9
14201.2
5080.83
248.537
2032.11
2795.93
4114.4
2548.54
2799.88
6263.75
5824.47
554.631
863.835
590.059
894.025
392.676
1207.76
752.071
1597.67
2799
1410.09
3730.71
2222.72
1866.44
3133.95
3246.16
59.9187
6792
986.419
-2896.08
-550.231
1155.15
317.112
362.105
-159.659
8327.78
3279
2211.03
1199.39
8461.17
3368.82
2795.25
1495.13
8425.61
3572.87
3875.88
2286.64
2501.36
1498.42
480.565
534.102
13037.8
11218.5
5881.8
5907.33
15341.1
14028.2
7354.38
7165.62
4668.35
4651.9
10249.2
8149.83
3141.39
3299.38
1240.72
1672.14
4194.38
4092.92
1790.26
2060.5
2339.04
2625.24
805.25
1412.96
3695.94
2081.7
3522.56
1964.01
6145.56
2870.32
5500.29
2842.31
1852.81
1322.7
2043.11
1140.95
562.924
556.311
1094.25
528.333
9427.89
5504.72
4031.78
3482.15
9448.59
5828.33
4021.07
3479.94
10112
6496.17
4082.77
3472.11
14309.8
16951.5
11850.5
7052.93
3153.66
15928.7
13248.8
11021.9
8026.84
3993.91
14826.8
12130.8
8731.28
5882.21
2840
3739.71
2686.8
2995.06
2749.75
4157.1
2889.84
3145.21
2848.27
4882.43
3383.97
3384.84
3042
11876.7
8456.67
9790.31
6611.06
6774.43
5065.01
5425.82
4104.44
3297.11
3209.44
9927.25
8588.02
7827.57
6572.65
5859.45
4947.73
4322.62
3817.95
2522.26
3026.24
6955.93
4702.41
4453.2
2808.19
10036.3
7622.21
6705.75
5467.17
3194.31
1944.98
4805.55
3395.89
4152.29
1984.39
1167.75
615.988
4849.23
3542.63
1303.52
1098
3208.17
1389.53
972.102
449.021
2142.5
1766.74
1365.55
1802.21
3127.54
2599.46
1782.53
2284.78
2165.11
1215.28
982.651
1221.32
436.59
162.67
-183.131
67.2437
1674.9
704.67
204.88
1690.57
477.465
128.103
1862.5
829.069
251.873
1779.98
527.72
148.034
2092.64
989.732
275.035
1913.03
594.999
152.402
5521.23
3108.16
880.713
4064.83
2133.5
607.567
3183.88
1607.38
474.978
2504.43
1194.38
311.182
2048.06
636.894
132.504
6471.27
3543.35
1113.69
4820.58
2479.51
750.451
3621.59
1815.87
548.388
2741.96
1243.72
344.772
2236.89
622.361
162.568
1076
332.458
83.1202
-2.97133
443.028
140.736
39.3823
4.40755
1119.62
352.149
96.5379
8.64417
538.171
177.775
71.4329
27.2728
1166.54
372.682
123.74
31.5808
828.497
290.059
75.0481
11.5289
499.308
200.929
18.7812
-20.0949
307.17
153.046
48.3267
16.1619
856.928
296.836
66.1145
-21.9297
681.979
229.591
80.0943
-10.8793
1091.07
351.695
107.141
7.67766
925.541
293.756
103.558
-17.2367
585.079
221.856
55.3243
-8.38487
453.348
165.419
65.1239
5.4289
306.065
136.198
50.2065
19.4814
227.582
98.5879
46.6725
18.2502
1328.86
405.778
102.825
-16.3736
1224.44
368.367
131.902
-19.2887
1314.57
402.907
104.231
-16.123
1186.4
355.245
130.821
-19.7144
1272.56
391.425
124.539
1.8274
1116.22
331.909
139.69
-7.80375
1084.9
341.66
135.637
36.3584
1214.51
359.686
175.513
-5.12561
923.38
287.936
122.526
10.8869
888.677
251.488
106.23
-3.13979
335.918
89.7925
30.6264
5.1501
931.802
264.854
109.815
-1.87341
355.86
95.8311
34.1109
7.54871
977.836
279.822
120.136
2.38922
376.837
102.939
37.7635
9.90552
896.565
258.911
126.211
7.60112
377.065
104.393
44.9174
13.7245
817.213
244.289
121.111
14.0564
343.957
103.673
51.9822
17.6845
501.06
156.117
58.6573
4.63895
282.306
100.834
41.9499
16.3244
628.278
185.949
81.6641
7.60366
314.883
104.191
48.4406
17.879
349.779
119.46
44.1039
6.22295
208.685
82.2788
32.3458
14.0759
180.499
75.5504
34.8855
13.765
122.408
57.9026
26.3711
13.4588
1.08027
0.690716
0.299142
0.116908
0.0536307
0.876427
0.393883
0.160506
0.0618987
0.0283178
3.33331
1.47118
0.58429
0.223274
0.102054
3.39658
1.28072
0.488383
0.18465