/*--------------------------------*- C++ -*----------------------------------*\
  =========                 |
  \\      /  F ield         | OpenFOAM: The Open Source CFD Toolbox
   \\    /   O peration     | Website:  https://openfoam.org
    \\  /    A nd           | Version:  11
     \\/     M anipulation  |
\*---------------------------------------------------------------------------*/
FoamFile
{
    format      ascii;
    class       volScalarField;
    location    "0.7";
    object      gradTy;
}
// * * * * * * * * * * * * * * * * * * * * * * * * * * * * * * * * * * * * * //

dimensions      [0 -1 0 1 0 0 0];

internalField   nonuniform List<scalar> 
5712
(
13905.2
8025.24
22223.5
14735.4
24367.6
18189.9
37472.5
47530.9
49611.2
61825.1
32455.6
28507.1
20574.2
16538.7
10452.3
7102.03
22352.3
22031.7
19612.8
22559.9
30033.6
25847.1
35638.8
27790
9586.56
6725.47
5471.42
4158.24
11165.1
9090.54
6961.84
5840.88
22022
22099.5
21609.2
17035.8
16085.1
13254.1
12980
14998.6
20772.5
20934.7
45168.8
47042.2
30839.8
32141.9
19153.1
16151.1
19955.2
14006.1
9327.36
9810.19
8356.03
13242.6
4414.74
5775.87
11326.9
17396.4
6897.09
8558.63
12090.4
23094.1
8558.19
15187.8
3171.67
8910.19
2654.15
6620.63
18985.2
23704.7
20349.8
24056.5
22721.8
22591.8
23907.6
22742.3
18003.7
24861.9
17847.2
24209.1
20387.2
24163.3
20572.4
24254.3
24575.1
22719.4
24728.8
22632.7
16865.7
25170.3
16423.3
25385.4
22486.3
28243.5
28387.5
42533.5
23859.1
33333.5
28132.7
47046.1
21331.2
24559.5
28506.6
40539.9
21177.3
22892.3
28880.8
40176.8
8225.51
11192.1
21372
39094.9
9843.32
11536.2
26721.8
43132.8
11674.5
11878.3
32751.1
46020.4
26782.5
26542.4
24708.5
25850.1
41831.1
26201.2
26455.7
24896.5
23041.1
49017.3
24100.6
25240.1
24258.9
26860.2
54401.8
2909.49
3536.42
6512.02
16493.8
4016.4
4695.56
8532.42
17560.7
5661.65
4795.1
11039.3
18883.1
24707.7
22364.4
23642.3
21120
22397.6
18409.7
17903.8
14768.6
13879.2
20959.4
23045.5
20592.2
24659.3
22587.2
23069.4
20264
20739
17808
14500.7
20395.3
25154
27651.8
25287
28683.7
23062.7
23062.6
22772
23690.6
24416.2
24482.7
24185.9
23649.7
25172.2
28950.7
25170.6
29063.7
22244.1
24222.2
22161.4
24289.9
24485.4
24404.4
24562.6
24461.4
21813
20577.5
14466.1
16692.1
21785.1
20183
14327.7
17139.2
22020.4
20416.3
14752.3
16596.8
22107.5
20188.3
15208.4
16549.4
2084.49
1158.63
679.005
1079.9
561.138
485.347
2976.34
1356.13
855.185
2001.62
1338.17
959.231
3064.67
1869.92
1585.87
3386.81
2272.16
1787.18
18568.3
13929.2
11141.7
18007.5
13998.5
11428.3
13586.9
10502.2
8788.41
10257.6
7131.01
5718.38
5256.61
3021.3
2178.64
17425.3
13299.7
10538.3
19099.4
14287.3
11210.3
15205.3
10467
7964.22
10642
6651.15
4982.31
5514.65
2932.13
1963.7
29050.6
27549
32435.8
28180.1
33728.8
28339.7
41911.6
30626.8
21390.7
20578.8
21368.4
18921.3
24198.6
21668.4
24144.2
19688.4
23799.8
23061.8
21860.1
22786
27535.8
25401
30251.5
31056.5
33947.5
35522.5
24440.5
25713.5
21955.9
21503.9
25773
26665.5
15276.3
7854.27
14498.6
8724.85
15646.4
7913.52
14572.5
8648.97
15603.5
7927.07
14753.5
9047.49
14503.1
9479.49
14754.3
9333.91
21122.9
17194.4
21551.1
17479.4
24066
21030.1
24977.2
21201.6
20438.3
13827.3
20805.5
13407.4
22424.5
17569.1
22885
17401.9
26108.7
21260.5
26343.8
21065
20553.4
13981.3
20611
13887.1
12590.1
7846.95
10340.9
6470.8
11433.6
6936.94
9777.16
6007.32
13061.4
8368.18
10572
6672.48
13118.8
8630.43
10521.7
6686.9
2259.31
1114.57
4070.71
2251.74
2375.55
1324.48
4297.82
2615.48
2873.51
1959.73
4717.81
3321.6
11550.8
19074
8068.89
7585.89
5364.62
18158.3
11807.1
6458.03
6445.75
4329.12
19609.5
14630
11067.8
8226.83
5183.35
544.403
312.099
1349.39
959.27
720.638
386.879
1738.91
1274.94
1222.54
729.022
2391.75
1786.44
17593.1
15450.7
11008.6
9357.86
6586.83
5727.55
5363.37
4087.89
3526.58
2624.23
17017.9
14077.5
12301.3
9525.91
8951.92
6781.32
6462.06
4830.16
4351.91
3603.49
13171.7
9305.95
13555
9436.89
16945.8
12904.3
17290.3
13236.3
10533.6
7304.65
10007.8
7058.32
13738.7
9480.02
13679.2
9484.66
17413.5
13752.2
17308.7
13775.8
10845.2
7328.26
10817
7404.26
7685.16
5417.81
5138.67
4477.59
7272.92
5125.84
4885.94
4138.13
8064.7
5587.36
5281.79
4728.32
8221.71
5580.11
5476.37
4779.2
570.84
440.727
329.761
2501.07
1152.03
844.569
560.669
495.593
397.536
2813.59
1406.52
1069.71
850.369
832.968
762.974
3294.65
1844.52
1464.32
12387.9
9583.76
7937.58
7469.72
5910.06
5052.22
4774.3
3820.79
3344.62
3509.52
2772.02
2372.41
3998.96
2392.21
1902.83
10991.4
8189.8
6537.66
7116.79
5244.05
4250.33
5102.4
3719.74
3030.75
4183.74
2968.39
2351.13
5108.43
2759.84
2119.78
3785.42
1844.24
903.691
424.627
4269.19
2014.84
959.887
441.974
3802.82
1845.02
906.006
425.938
4352.07
2059.45
990.795
458.572
3799.41
1831.17
932.913
446.045
4444.59
2086.85
1044.04
491.571
4772.44
2200.1
1028.17
468.984
4858.57
2260.02
1032.33
467.616
4017.94
1951.23
986.345
465.328
3346.93
1722.92
905.139
435.115
3542.6
1769.87
930.439
452.38
3107.91
1629.11
872.002
424.494
4323.54
2079.53
1014.13
468.672
3481.83
1786.11
921.67
440.658
4469.26
2154.69
1033.32
477.355
3529.11
1824.95
937.858
450.891
2843.11
1566.97
824.838
403.515
1950.51
1257.74
729.465
372.21
2855.67
1563.7
827.31
404.942
2032.4
1279.34
736.201
375.052
2937.96
1572.31
845.831
416.146
2270.01
1344.73
759.956
384.349
2925.02
1545.32
842.037
427.241
2483.94
1395.62
794.294
395.259
2781.86
1513.7
832.004
417.256
1217.4
1028.33
585.162
169.279
575.876
911.464
532.212
163.196
1354.07
1073.94
603.252
178.496
710.869
959.206
547.333
167.555
1628.12
1157.95
627.259
179.826
962.653
1043.74
568.657
170.962
1989.3
1264.31
670.757
196.182
1272.34
1145.08
601.445
180.17
2276.46
1369.48
725.441
224.804
1452.23
1234.12
632.96
188.626
2500.3
1491.59
748.969
219.743
1499.67
1350.64
690.513
203.546
2414.6
1440.73
734.405
218.539
1418.22
1299.88
662.159
195.411
2541.39
1522.24
748.893
207.917
1519.73
1386.56
703.272
204.672
2588.65
1547.45
761.097
210.29
1582.18
1413.79
716.685
208.134
209.293
105.091
49.1589
20.7695
5.63522
210.211
105.362
49.2855
20.8201
5.64809
212.224
106.491
49.6376
20.9276
5.67257
215.551
107.129
49.8917
21.0254
5.69726
219.568
108.321
50.2115
21.1164
5.71735
223.106
108.961
50.538
21.2505
5.75188
223.422
110.783
51.3322
21.5452
5.82515
227.17
112.983
52.3011
21.9161
5.91897
226.605
110.445
50.9888
21.39
5.78405
235.487
112.286
51.4732
21.5336
5.81677
226.919
109.705
50.6176
21.2454
5.74756
234.838
111.417
51.0855
21.389
5.78078
227.645
111.984
51.6776
21.6491
5.84883
239.573
113.745
52.0762
21.7599
5.87353
232.955
114.165
52.5797
21.9908
5.93517
245.099
115.702
52.8448
22.0491
5.94669
210.669
105.048
49.0593
20.7236
5.62325
214.974
105.203
49.007
20.6955
5.61582
213.667
106.18
49.4343
20.8447
5.6515
217.679
106.116
49.3064
20.7916
5.63812
220.13
108.024
49.9977
21.0258
5.69399
223.628
107.785
49.8227
20.9573
5.67685
228.055
109.854
50.5292
21.196
5.73401
230.499
109.534
50.3767
21.1398
5.72014
234.862
110.79
50.8224
21.2937
5.75734
16729.3
26159.9
17116.5
26103.8
17565.5
25838.6
17497.9
25237.6
16089.9
23405.8
14087.6
16066.5
14363
17350.1
14042.8
15692.6
14262.1
15796.4
15224.5
2649.34
580.846
134.629
24.6124
16961.9
4914.53
1222.03
286.094
52.2668
15139.9
2595.89
566.761
131.184
23.9568
16818.2
4832.95
1200.77
280.454
50.9017
14854.7
2525.54
549.694
127.248
23.2601
16460.7
4710.66
1169.8
273.323
49.6775
14219.3
2379.26
516.49
119.93
21.9963
15750.4
4495.41
1118.35
262.125
47.7647
13025
2132.3
464.762
108.91
20.1118
14472.3
4158.89
1043.03
246.325
45.1181
11000.8
1884.75
428.163
102.965
19.302
11239.2
3429.23
892.087
216.381
40.3423
11635.9
1956.46
437.583
104.146
19.3992
12236.6
3710.89
952.268
228.014
42.119
10727.4
1858.28
424.985
102.699
19.3094
10846.4
3294.58
860.277
210.04
39.3841
10649.4
1838.16
420.454
101.765
19.1373
10793.2
3258.51
849.882
208.294
39.0543
38020
56170.7
54475.3
36514.6
20346.9
21619
30246.5
32092.7
24490.4
28008.9
39990.2
55975.2
51026.7
68945.9
32801.4
38001.7
25210.9
27317.6
13463
14915
4274.09
2532.35
252.508
145.657
159.854
129.086
197.348
3751.21
3200.83
1766.42
2217.65
1803.79
698.774
1132.28
844.7
488.336
580.874
424.312
3511.72
1448.14
628.677
537.747
844.222
690.018
460.509
377.815
283.475
231.954
412.564
361.756
3883.73
2020.38
2411.27
1252.84
892.767
1514.26
457.297
266.025
530.965
8091.32
7036.13
6091.37
5745.84
8125.92
5201.15
5150.21
4783.47
4598.92
4849.69
631.699
828.773
930.049
971.843
985.633
370.346
498.369
572.406
607.879
621.046
406.857
548.059
629.432
667.729
681.436
329.716
446.822
516.403
550.668
563.602
498.726
664.383
755.334
795.713
809.45
7348.24
6614.75
5588.05
5010.48
6902.38
6265.72
5518.99
4552.29
3996.23
4184.11
3774.62
3907.07
3628.71
3378.02
3361.83
4404.75
4020.14
3356.06
2905.09
2748.43
3578.4
3306.63
2776.39
2372.49
2189.54
1632.67
1926.49
1966.23
1920.41
1887.96
2509.38
2734.82
2620.93
2459.33
2386.2
1906.87
2135.66
2084.22
1964.11
1888.99
1174.85
1448.25
1531.84
1529.81
1515.22
1369.97
1638.42
1687.46
1651.79
1618.28
1031.14
1290.01
1380.58
1388.17
1377.64
7004.12
6499.48
5639.26
5193.22
7193.2
3195.35
3481.65
3376.03
3242.11
3268.88
1493.1
1806.67
1885.7
1874.16
1861.46
1293.24
1596.28
1697
1709.76
1709.33
1960.53
2299.94
2351.46
2319.66
2317.6
1639.68
1989.45
2089.19
2095.14
2098.53
1122.21
1414.81
1534.61
1569.87
1580.69
930.897
1191.81
1306.95
1343.19
1351.78
707.07
921.747
1025.19
1061.08
1068.99
583.07
769.864
867.259
906.766
918.56
1007.55
1271.43
1374.06
1394.95
1393.99
891.35
1140.88
1249.85
1282.27
1288.48
7521.02
6758.24
5899.21
5542.25
7773.93
4276.52
4423.04
4212.05
4082.88
4248.14
5209.19
5334.21
4898.55
4661.65
5143.03
2836.05
3219.17
3235.9
3191.97
3233.42
2085.33
2470.18
2551.78
2542.98
2555.22
3348.45
3669.41
3585
3472.85
3528.07
1114.54
1404.58
1521.45
1553.44
1561.68
664.484
869.075
971.408
1011.12
1022.87
1280.84
1588.85
1697.57
1717.76
1721.53
22265.5
15049.8
22746.3
16585.8
28762.1
43204.2
30422.5
43264.1
23084.5
23886.6
20110.6
23495.6
25214.5
23288.6
33644.1
26409.6
17891.1
17851.3
8769.37
7944
19300.9
18627.2
9970.65
8540.62
24396.6
25898.3
24229.1
21465.4
25508.6
16711.1
13081.7
15106.6
21179
21083.1
45519.8
47294
30482.8
32110.4
20446
16471.5
21483.5
14328.9
10573
10144.5
19927.9
22835.2
8257.94
9306.61
21578.2
25686.7
10163.9
11601.5
19954.6
29609.4
11486.4
18625.2
3881.16
10139.4
2807.04
6873.75
20848.9
23414.7
20888.9
23949.9
21476.9
21385.4
23109
22120.7
20125.5
25367.5
22971.9
24990.6
20558.3
24124.8
20606.5
24242.9
24222.2
22425.9
24636.9
22545
17673.5
25441.8
16611.4
25467.4
24366.5
30575.8
29359.5
43736.3
26788.3
36942.9
29678.9
48930.1
22279.1
25766.8
29027.3
41213.7
21448.3
23247.9
29039.6
40394.9
27568.7
29510.8
36144.7
55000
27238.8
27456.1
38460.5
55352.7
26062.4
25204.7
40921
54063.5
20921.8
20388
24111.5
27919.1
45962.2
19331.3
19116.3
25336.2
24914.9
53394.1
20167.2
22415.9
23993.8
28642.8
56894.2
13918.4
12076.8
14449.9
20087.7
15360.6
13381
14873
20417.3
17147.5
14032
15395.5
20529.2
18030.5
16212.1
17901.5
16308.5
22712.7
19801
19795.2
16922.1
15945.2
21150.7
19264.4
17876.7
21731.8
20713.4
22457.1
20151.5
21988.3
18909.5
15529
20132.4
24016.6
26402.4
24826.9
28079.7
21381.4
21574.1
22022.7
22968.9
24445
24366.2
24085.1
23397.1
24974.1
28689.3
25115.7
28991.4
21911.6
23884.4
22065.8
24193.5
24510.7
24367.8
24568.4
24451.8
22201.9
20795
14857.2
16949
22438.9
20549.2
15017.3
17461.3
22222.7
20539.8
14958.4
16755.8
22170.7
20228.5
15278
16603.5
10603.4
10818.2
4927.31
4384.7
11861.7
11280.4
5521.08
5147.93
11434.2
10244.8
6192.99
5803.53
14839.9
13536.2
15478.5
14799.8
16659.7
15244.8
13536.7
11323.4
7466.47
5766.55
16657.6
14900.6
19225.1
17236
16590
14175.2
12868.9
10075.1
6734.67
4483.3
23269.5
21367.8
30141.2
25231.8
27314.3
23423.5
39539.7
28349.7
20517.3
15785.8
23159.6
17105.1
20288.9
16142.5
23278.4
17492.2
21546.9
18189.1
19114.2
17018.2
20220.5
22434.5
28880
30665.3
33038.9
35298.9
23170.5
25316.4
20659.9
21141.1
24065.4
26095.5
11994.9
8173.08
12751.7
8507.13
12353.9
8136.2
13065.1
8429.17
12416.5
8061.11
13292.1
8749.71
13588.8
9193.82
14429.1
9224.43
17009.7
15812.5
19539.3
16615.4
20516.1
19093.3
23188.1
20151.6
18317.1
13312
16689.4
12810.2
21445.2
17108.1
22598.9
17260.6
25307.1
20746.1
26124.5
20912.5
19459.1
13667.3
20275.4
13786.5
11882
7841.34
10206.1
6556.76
10901.9
7377.72
9873.19
6353.68
12587.6
8268.69
10440.4
6679.21
12963.6
8584.23
10474.5
6685.18
10946.5
10285.1
7404.79
6544.09
11118.1
10467.1
7293.21
6502.75
11118.3
10142.8
7142.18
6500.7
14176.9
17780.1
14143
9826.37
6866.28
16213.6
14361.6
14911.1
9562.3
6494.33
18085.3
14926.8
12293.2
9594.95
6131.36
9595.81
8957.79
6013.53
5771.01
9660.8
8912.1
6018.44
5762.13
9177.95
8305.62
5903.85
5433.59
15378.7
13484.3
12967.6
11325.5
12268.3
11276.2
8859.51
8185.58
5827.16
5198.06
15631.5
13154.2
12954.8
10504.4
10659.4
8794.8
8329.12
7033.11
5479.87
4946.3
12868.9
9547.38
13188.1
9390.81
15897.9
12346.4
16647.1
12864.3
10451.7
7483.17
10287.5
7770.18
13503.7
9402.77
13602.7
9453.21
17087.4
13542.2
17210.5
13711.1
10729
7345.08
10771.2
7397
7815.82
5711.26
5321.15
4759.32
7842.35
5975.59
5378.3
4855.82
8061.82
5664.24
5337.14
4838.14
8211.49
5593.23
5488.76
4805.97
9174.3
8775.87
10353
8872.27
9083.36
8667.8
9977.41
8493.18
8189.28
7980.81
9236.46
7861.48
11998.3
10839.1
9925.15
9004.36
10203.9
9662.12
8003.28
7351.83
8481.91
7005.69
11027.3
9621.09
8640.75
7712.05
7576.21
7059.15
6905.35
6205.19
7976.21
6083.19
4447.72
2216.16
1074.81
498.121
4649.17
2301.33
1107.51
508.646
4394.8
2187.21
1061.54
491.99
4643.86
2298.03
1116.65
516.482
4298.35
2128.66
1071.69
505.817
4652.57
2273.52
1148.96
541.706
4855.84
2307.16
1092.58
500.501
4879.32
2295.1
1053.57
478.267
4223.63
2101.97
1071.16
506.884
3495.99
1831.84
966.818
466.167
3961.8
2010.8
1051.82
508.202
3401.97
1812.6
962.28
465.701
4408.97
2161.23
1063.85
493.861
3549.25
1843.28
957.591
460.071
4490.65
2180.42
1049.68
485.856
3548.12
1842.74
949.635
457.401
4069.07
2070.19
1031.67
487.635
3543.52
1875.92
972.844
466.682
3990.5
2037.35
1021.2
483.215
3498.53
1859.27
965.176
464.199
3892.36
1986.95
1019.94
487.211
3486.58
1842.3
960.901
462.488
3633.96
1885.5
990.55
489.632
3403.17
1807.31
964.433
460.373
3287.08
1784.71
953.189
467.816
2913.26
1697.01
820.32
223
2098.78
1591.24
777.55
223.596
2929.67
1699.09
825.849
230.989
2148.47
1593.79
779.151
225.126
2972.25
1696.26
820.121
224.325
2226.11
1591.79
771.688
221.457
2948.08
1683.43
833.557
235.662
2210.79
1579.3
770.558
223.323
2827.14
1653.61
850.647
259.45
1988.74
1543.6
763.917
223.528
2632.51
1591.54
808.131
238.112
1608.19
1461.48
749.182
220.982
2693.07
1615.03
823.958
244.392
1674.49
1494.09
753.38
220.992
2598.04
1573.05
781.96
218.327
1558.81
1441.01
734.797
214.368
2603.4
1562.86
771.583
213.652
1590.55
1429.75
726.404
211.18
242.898
119.75
55.1129
22.9996
6.19736
240.625
119.132
54.9674
22.9628
6.1895
242.733
119.731
55.0281
22.9508
6.1831
241.969
119.031
54.8131
22.8856
6.1679
247.039
119.905
54.9171
22.8841
6.16386
245.294
118.739
54.5818
22.7815
6.1397
238.163
117.448
54.1171
22.6058
6.09451
232.49
115.46
53.3467
22.3164
6.02088
246.393
119.212
54.5862
22.7494
6.12836
253.413
119.981
54.6112
22.7185
6.11699
252.505
120.253
54.8771
22.8447
6.15168
258.44
120.803
54.8602
22.8064
6.13913
240.349
117.879
54.1329
22.5835
6.0862
250.887
118.853
54.1918
22.5648
6.07809
237.27
116.176
53.4263
22.3149
6.01771
248.916
117.455
53.5782
22.3297
6.01817
249.489
120.816
55.3023
23.0398
6.2052
260.649
121.865
55.4426
23.0658
6.21003
250.139
120.869
55.2584
23.0089
6.19576
261.036
121.882
55.4099
23.0433
6.2031
253.303
121.069
55.1726
22.9531
6.17939
262.74
121.941
55.3272
22.9947
6.18897
258.347
121.372
55.0894
22.8971
6.16296
265.109
121.797
55.1841
22.9276
6.17047
263.212
121.308
55.0055
22.8579
6.15219
18508.4
24912.2
18499.7
24793.2
18468
24521
17830.4
23878.4
16250.9
22269.6
14297.7
16220.8
14642.5
17382.7
14172.5
15814.1
14305.2
15838.3
15162.5
2607.65
572.331
133.35
24.4873
16307.2
4792.17
1201.41
283.176
51.9821
15014.3
2551.51
558.322
129.954
23.8395
16143.2
4709.48
1180.34
277.619
50.6348
14648.7
2479.01
541.698
126.142
23.1607
15782.4
4589.82
1150.46
270.734
49.4444
13984.1
2338.86
510.212
119.135
21.9363
15138
4390.75
1102.34
260.103
47.6036
12891.5
2111.27
461.727
108.605
20.109
14050.2
4089.8
1032.96
245.201
45.064
11075.1
1893.68
429.699
103.31
19.3693
11303.4
3440.83
894.553
217.021
40.4777
11672.9
1957.8
437.767
104.297
19.4475
12198.6
3696.2
950.063
227.977
42.1851
10787.1
1866.34
426.438
103.004
19.3639
10910.3
3309.29
863.392
210.72
39.5072
10671.4
1841.18
421.006
101.879
19.1572
10817.5
3264.43
851.148
208.564
39.1015
37674.9
56215.4
54275.7
35357.3
26460.3
32869.5
25336.6
32682.7
31055.4
52293.5
33346.9
53828.2
7.69075
10.6444
17.5674
30.6748
54.1864
95.293
10.0634
13.6801
22.0397
37.4951
64.0952
108.106
6.09234
5.3529
8.80613
8.10628
15.3089
14.8678
27.9505
28.5341
50.6477
53.0188
88.1029
88.9058
166.231
284.758
479.16
790.335
1189.12
1483.99
178.381
285.313
438.869
638.28
847.53
987.1
20.1632
28.5482
34.534
38.2248
39.944
27.8324
39.2284
47.2252
52.0622
54.2796
45.7636
64.0969
76.6522
84.0389
87.346
79.5534
110.594
131.232
142.966
148.065
139.733
192.436
226.164
244.5
252.156
243.852
331.63
384.925
412.133
422.874
26.3237
37.1281
44.7317
49.3466
51.4684
35.6747
50.0579
59.9832
65.8756
68.5348
57.2292
79.7282
94.8239
103.503
107.313
96.875
133.841
157.827
171.092
176.72
164.608
225.18
262.908
282.788
290.869
275.565
372.413
429.672
458.009
468.904
16.0015
22.7258
27.5815
30.6135
32.0404
14.0739
20.0235
24.3475
27.0665
28.3535
23.0689
32.6181
39.3999
43.5568
45.4833
21.256
30.1039
36.4258
40.3264
42.1438
39.9614
56.1632
67.4066
74.1193
77.1614
38.8463
54.6813
65.734
72.3744
75.3989
72.6527
101.384
120.771
131.976
136.912
74.2321
103.73
123.732
135.352
140.491
130.949
181.107
213.745
231.817
239.479
137.192
189.981
224.473
243.638
251.78
226.22
309.31
360.839
387.759
398.58
228.678
313.499
366.571
394.511
405.787
420.772
562.34
641.944
678.961
692.44
709.897
926.515
1035.29
1079.18
1093.66
1169.26
1477.63
1606.97
1647.65
1660.87
1870.45
2261.33
2377.45
2395.4
2411.08
2708.65
3104.13
3148.11
3125.4
3163.54
3304.7
3667.87
3642.99
3588.29
3649.85
450.409
599.569
681.925
719.394
732.796
711.886
930.155
1040.22
1084.84
1099.49
1078.97
1378.33
1511.85
1557.7
1571.86
1541.84
1918.9
2061.15
2098.94
2112.29
2010.81
2438.66
2569.67
2592.43
2607.98
2316.5
2766.12
2882.79
2894.19
2913.19
7.75149
10.8557
18.0275
31.5848
55.904
98.3678
10.1381
13.9319
22.5564
38.4327
65.6673
110.519
6.14506
5.40295
8.99743
8.29534
15.7567
15.3416
28.9225
29.6614
52.672
55.4867
92.3254
94.8496
170.971
290.373
483.813
790.727
1185.51
1481.71
181.611
288.843
441.72
639.392
847.081
986.641
20.3282
28.7961
34.8532
38.5966
40.344
28.407
40.0927
48.3386
53.36
55.6759
47.0166
65.9854
79.0894
86.8832
90.4079
82.0372
114.35
136.094
148.651
154.191
144.44
199.595
235.476
255.426
263.951
252.334
344.649
401.988
432.259
444.657
26.5274
37.4358
45.13
49.8124
51.9703
36.3624
51.0991
61.3326
67.4557
70.2388
58.6437
81.8778
97.6197
106.785
110.857
99.4528
137.782
162.981
177.165
183.291
168.959
231.9
271.77
293.293
302.269
282.321
383.012
443.834
474.95
487.373
16.1444
22.9397
27.8558
30.9319
32.3824
14.2094
20.2258
24.6063
27.3666
28.6754
23.5875
33.3945
40.3956
44.7134
46.7253
21.7677
30.8678
37.4031
41.4594
43.359
41.1763
57.9837
69.7429
76.8344
80.0776
40.1288
56.5967
68.1843
75.215
78.4459
75.2924
105.345
125.86
137.895
143.272
77.2845
108.29
129.566
142.114
147.744
136.461
189.411
224.449
244.292
252.896
143.896
200.042
237.394
258.658
267.912
237.728
326.656
383.192
413.793
426.57
244.707
337.272
396.748
429.272
442.943
434.067
583.22
669.825
712.263
728.714
726.351
953.809
1073.26
1125.76
1145.08
1184.72
1506.81
1650.91
1704.12
1724.68
1876.9
2281.85
2415.06
2448.49
2473.87
2705.38
3111.51
3169.52
3160.31
3207.73
3301.54
3668.67
3649.24
3599.98
3665.44
459.652
614.49
702.321
744.164
760.007
722.451
948.16
1065.82
1116.71
1134.94
1088.46
1396.36
1539.27
1593.19
1612.07
1547.41
1932.61
2084.61
2131.17
2149.86
2012.15
2445.88
2584.44
2614.27
2634.3
2316.36
2768.12
2887.65
2901.78
2922.56
4256.13
2524.96
262.316
152.808
177.755
139.884
211.256
3596.17
3151.02
1792.14
2290.57
770.174
1220.82
553.132
660.479
482.148
3410.48
1459.07
675.976
568.337
871.394
707.285
470.327
397.954
325.474
261.016
456.554
391.287
3833.22
2005.71
2371.01
1247.87
898.638
1511.12
473.372
284.87
553.114
8064.45
7026.54
6099.3
5772.93
8185.24
5189.65
5147.02
4790.92
4617.4
4877.43
659.496
872.901
989.288
1042.74
1062.92
390.013
528.383
611.469
653.678
670.446
454.676
617.92
716.813
767.248
787.183
358.787
489.81
570.781
613.112
630.232
536.822
722.114
829.894
882.566
902.795
7300.87
7010.63
6311.18
5975.58
8214.15
6536.63
6398.78
5870.65
5602.74
5979.56
3946.99
4327
4274.63
4188.52
4267.47
5032.93
5259.67
4952.15
4757.15
4733.2
1844.48
2272.04
2427.06
2463.81
2474.73
2805.48
3259.99
3341.4
3318.45
3317.36
1358.12
1733.61
1902.69
1961.07
1977.98
1606.94
2023.02
2194.22
2243.87
2255.41
1194.86
1545.8
1714.63
1778.21
1797.16
6903.2
6619.37
5969.84
5687.43
7932.49
3275.68
3689.01
3711.44
3678.93
3768.61
1633.22
2037.23
2197.68
2246.47
2266.29
1384.04
1746.94
1903.25
1958.28
1981.01
2053.77
2475.18
2607.04
2638.06
2672.13
1696.59
2094.27
2242.46
2287.38
2313.17
1152.87
1469.02
1612.79
1667.59
1689.59
988.602
1284.35
1431.57
1492.27
1514.16
819.948
1087.82
1233.75
1299.16
1322.32
661.046
884.42
1011.1
1070.97
1093.25
1131.04
1463.28
1624.68
1688
1709.35
974.363
1270.56
1420.63
1483.32
1505.64
7452.23
6748.53
5946.72
5649.88
7985.64
4256.5
4426.28
4244.34
4143.95
4332.05
5168.97
5387.85
5054.04
4908.29
5475.86
2838.41
3252.24
3306.39
3296.69
3361.06
2113.7
2536.97
2661.28
2689.03
2723.57
3377.71
3781.56
3788.66
3753.93
3860.06
1162.63
1485.59
1634.33
1691.42
1713.68
716.842
949.857
1077.09
1135.2
1156.73
1347.62
1701.88
1854.89
1909.58
1932.54
2687.64
2683.55
2655.36
2498.94
2039.32
854.223
22166.8
22360.4
24360.3
25481.3
21001.8
21724.3
22755.5
21425.4
18952.4
26360.1
19392.7
26625.2
22164.9
19619.4
33609.2
20785.1
20793.2
22442
23230.4
19265
19998.2
21262.9
20285.9
18596.5
31842.6
18903.2
30995.6
22180.7
24636.1
35942.5
19015.7
18862.6
19856.5
20306.3
17674
18986.5
19142.8
18832.7
20978.3
26990.9
21669.4
26617.1
23804.8
27192.3
31155.1
17175.4
17050.5
17167.9
17398.6
16342.5
17897.6
16680.4
16731.9
18732.1
22511.3
19356.2
21494.5
20625.9
23018.9
25289.6
15381.3
15297
15120.1
15238.4
15240
16872.3
14810.1
15054.3
16914.2
17265.6
17545
16098.5
17827.2
17641
19226.1
14435.5
14414.4
13672.3
13743.8
14234.4
15364.8
13532.5
13677.9
15471.9
13778.3
15809.4
13099.9
15690.1
14100
16241.7
22375.7
21190.3
24466.2
26120.4
19995.2
19521.7
22196.5
20640
18555
12451.1
18367.7
12507.6
15974.2
14196.8
16239.3
20452.5
19578.7
21910.8
23035.6
18782.6
18540
20342.8
19036.3
16335.4
11220.3
16198.1
11316.4
13778.5
11886.6
13974.9
17760.7
17217.9
18672
19270
16702.5
16467.2
17811.8
16935.7
14340.1
10055.4
13981.2
9856.51
12119.8
9833.24
12613.2
14788
14458.2
15731.3
16047.6
14073.9
13766.2
15338.8
14612.3
12031.8
9073.57
11807
8916.52
10365.9
8934.66
11393.6
12769.4
12540.3
13743
13935.8
12081.1
11787.6
13552.7
13007.9
10575.5
8854.47
10407.3
8774.75
9420.95
8660.78
10688.1
11286.9
11091.5
12417.4
12561.3
10791.4
10772.9
12225.3
11907.9
9694.77
8679.68
9612.69
8669.51
8840.1
8605.51
10461.9
13693.7
7773.81
22212.4
14742.3
24392.1
18172.2
37504.4
47545.2
49670.2
61852.6
32514.9
28506
20584.9
16572.1
10152.8
6782.85
22354.6
22033.6
19609.6
22560.2
30048.1
25853.1
35647.4
27794.5
9392.62
6583.1
5287.5
4030.6
11129.7
9078.06
6958.27
5857.84
22014.8
22092.4
21606.5
17035.5
16079.2
13257.5
12980.6
15000.2
20773.9
20936.4
45176.5
47047.7
30843.3
32144.4
19153.9
16152.9
19956.8
14007.7
9328.58
9811.51
8204.74
13045.6
4296.79
5638.65
11330.1
17414.2
6916.46
8582.21
12092.3
23103.1
8566.48
15198.8
3173.47
8914.44
2654.77
6622.24
18985.9
23705.6
20351
24057.5
22724.5
22593.2
23909.9
22743.4
18005.8
24863.2
17847.1
24210
20388.4
24164.3
20573.4
24255.2
24576.8
22720.1
24729.8
22633.2
16867.1
25171.6
16424.5
25386.8
22488.8
28248.8
28389.8
42537
23861.1
33339.1
28134.9
47050.3
21333.5
24563.3
28508.8
40542.9
21179.5
22895.4
28882.9
40179.8
8108.98
11080.3
21122.3
38830.6
9850.8
11540.7
26744.5
43161.6
11678
11881.2
32761.3
46031.3
26782
26542.9
24707.6
25851.6
41837
26201.3
26455
24894.8
23041.8
49023.7
24101.3
25240.4
24259.4
26862.3
54406.8
2859.75
3501.06
6388.35
16355.3
4022.17
4702.2
8550.79
17577
5664.42
4796.47
11045
18886.4
24707.4
22364
23641.6
21119.5
22396.3
18409
17904.7
14769.5
13882
20961.3
23045.5
20592
24659.3
22587.1
23069.7
20264.2
20740.4
17809.2
14502.4
20396.7
25154.4
27651.7
25287.4
28683.7
23063
23062.3
22772.2
23690.4
24417
24483.2
24186.5
23650.2
25172.6
28950.7
25170.9
29063.7
22244.2
24222
22161.4
24289.6
24486.2
24404.9
24563.4
24461.9
21814.1
20578.4
14467.1
16693
21786.4
20184
14329
17140.3
22021.5
20417.1
14753.2
16597.6
22108.6
20189.1
15209.3
16550.2
2060.65
1142.33
667.338
1078.33
556.861
480.088
2988.14
1361.74
856.675
2011.16
1343.26
961.065
3065.01
1870.46
1586.49
3387.56
2273.43
1788.34
18568
13929.3
11142
18007.5
13998.9
11428.9
13587.1
10503
8789.27
10258.2
7131.81
5719.27
5257.19
3021.99
2179.26
17425.1
13299.8
10538.6
19099.4
14287.7
11210.9
15205.5
10467.5
7964.85
10642.5
6651.7
4982.91
5515.15
2932.54
1964.04
29055.1
27550.1
32438.9
28181.2
33744.4
28345.7
41925.3
30631.9
21197.1
20517.8
21135.4
18846.6
24162.7
21636.7
24105
19657.7
23793.4
23056.1
21859.7
22783.7
27516.6
25384
30252.3
31056.5
33951.3
35524.6
24438.2
25712.2
21954.7
21502.6
25764.4
26661.3
15277.6
7859.57
14493.1
8731.92
15626
7908.03
14555
8644.49
15589.9
7921.89
14741.7
9042.12
14496.3
9475.36
14750.7
9331.31
21120.7
17193.8
21549.7
17478.9
24067.9
21030.8
24978.9
21202.1
20432.1
13825.7
20797.6
13405.4
22423.7
17568.6
22884.2
17401.2
26109.9
21260.7
26344.3
21064.8
20549.7
13980
20608.6
13886
12586.4
7844.11
10338.9
6469.28
11429.6
6934.14
9774.83
6005.66
13058.6
8365.77
10570.3
6671.18
13116.8
8628.58
10520.3
6685.8
2249.81
1103.57
4059.63
2238.81
2375.51
1325.07
4297.25
2615.92
2872.33
1959.32
4715.93
3320.76
11551.4
19075.1
8068.32
7584
5362.85
18159
11807.3
6457.8
6444.32
4327.91
19610.1
14629.7
11066.5
8224.94
5181.9
534.883
302.864
1337.09
950.917
721.364
386.684
1739.04
1274.65
1222.55
729.228
2391.41
1786.39
17593.2
15450.5
11008.3
9357.38
6586.34
5726.98
5362.46
4087.38
3525.83
2623.86
17018
14077.3
12301
9525.52
8951.04
6780.71
6460.94
4829.52
4350.92
3602.83
13171.2
9305.49
13554.5
9436.45
16946
12904.2
17290.4
13236.2
10532.6
7303.98
10006.8
7057.61
13738.3
9479.6
13678.6
9484.2
17413.4
13752
17308.4
13775.5
10844.4
7327.66
10816.2
7403.68
7684.07
5417.11
5137.72
4476.81
7271.7
5125.11
4884.91
4137.35
8063.74
5586.71
5280.96
4727.58
8220.84
5579.52
5475.62
4778.54
560.137
432.968
324.052
2484.93
1140.38
834.488
559.608
495.167
397.528
2812.37
1406.45
1069.77
850.528
833.052
763.024
3294.36
1844.52
1464.37
12387.7
9583.66
7937.6
7469.31
5909.8
5052.05
4773.78
3820.44
3344.37
3509.15
2771.76
2372.21
3998.38
2392.02
1902.73
10991.1
8189.67
6537.65
7116.43
5243.81
4250.18
5101.96
3719.46
3030.56
4183.22
2968.1
2350.94
5107.5
2759.51
2119.59
3785.64
1843.87
903.243
424.344
4268.52
2013.58
959.165
441.616
3801.6
1844.6
905.828
425.871
4351.15
2059.14
990.654
458.511
3798
1830.7
932.708
445.958
4443.08
2086.36
1043.83
491.48
4770.93
2199.58
1027.95
468.892
4857.38
2259.55
1032.13
467.527
4016.73
1950.73
986.117
465.227
3346.1
1722.49
904.92
435.01
3541.46
1769.39
930.217
452.28
3107.05
1628.68
871.783
424.39
4322.38
2079.03
1013.91
468.57
3481.07
1785.7
921.459
440.555
4468.28
2154.24
1033.12
477.259
3528.44
1824.58
937.662
450.794
2841.93
1566.77
824.637
403.321
1948.06
1257.08
729.284
372.139
2854.92
1563.35
827.15
404.877
2031.95
1279.09
736.085
374.998
2937.05
1571.91
845.645
416.064
2269.41
1344.42
759.799
384.275
2924.14
1544.91
841.829
427.14
2483.24
1395.26
794.109
395.17
2781.08
1513.3
831.793
417.148
1215.75
1027.75
585.116
169.332
574.731
910.46
531.87
163.103
1353.76
1073.77
603.14
178.454
710.61
959.128
547.276
167.537
1627.74
1157.7
627.129
179.786
962.442
1043.53
568.55
170.93
1988.8
1264
670.597
196.136
1272.06
1144.8
601.304
180.127
2275.88
1369.12
725.254
224.748
1451.91
1233.8
632.797
188.578
2499.76
1491.23
748.781
219.689
1499.39
1350.31
690.335
203.493
2414.02
1440.35
734.215
218.485
1417.92
1299.54
661.983
195.36
2540.9
1521.9
748.715
207.868
1519.48
1386.25
703.102
204.622
2588.22
1547.14
760.935
210.246
1581.96
1413.51
716.53
208.088
209.123
105.019
49.1335
20.7611
5.63325
210.004
105.269
49.2524
20.8089
5.64543
212.204
106.477
49.6309
20.9249
5.67186
215.527
107.115
49.8847
21.0226
5.69652
219.533
108.304
50.2036
21.1131
5.71649
223.069
108.943
50.5297
21.2471
5.75099
223.379
110.762
51.3229
21.5414
5.82413
227.127
112.961
52.2916
21.9122
5.91792
226.558
110.425
50.9795
21.3862
5.78306
235.43
112.262
51.4631
21.5295
5.8157
226.874
109.686
50.6088
21.2418
5.74662
234.782
111.395
51.0758
21.3851
5.77975
227.596
111.962
51.6677
21.645
5.84776
239.515
113.721
52.0657
21.7557
5.87241
232.907
114.143
52.5698
21.9867
5.93408
245.044
115.679
52.8345
22.0449
5.94558
210.504
104.986
49.0385
20.7168
5.62166
214.836
105.15
48.9891
20.6897
5.61447
213.648
106.168
49.4282
20.8422
5.65085
217.663
106.104
49.3007
20.7893
5.63753
220.095
108.008
49.99
21.0227
5.69317
223.593
107.769
49.8154
20.9543
5.67607
228.008
109.834
50.5204
21.1925
5.73308
230.452
109.514
50.3683
21.1363
5.71924
234.807
110.768
50.8131
21.29
5.75635
16659.6
26082.2
17120.6
26107.6
17568.1
25840.3
17499.5
25238.7
16091
23406.7
14088.4
16067.3
14363.9
17351
14043.6
15693.3
14262.8
15797.2
15216.6
2633.19
576.417
133.56
24.4154
16946.1
4906.25
1219.32
285.388
52.1298
15135.5
2597.05
566.983
131.22
23.9615
16815.7
4831.93
1200.38
280.335
50.8775
14853.7
2525.68
549.716
127.245
23.2585
16460.1
4710.34
1169.66
273.274
49.6663
14219.4
2379.3
516.489
119.926
21.9948
15750.5
4495.35
1118.3
262.105
47.7595
13025.4
2132.35
464.767
108.909
20.1113
14472.7
4158.95
1043.03
246.319
45.116
11001.3
1884.83
428.178
102.968
19.3024
11239.7
3429.37
892.117
216.387
40.343
11636.4
1956.54
437.595
104.147
19.3994
12237.1
3711.01
952.288