/*--------------------------------*- C++ -*----------------------------------*\
  =========                 |
  \\      /  F ield         | OpenFOAM: The Open Source CFD Toolbox
   \\    /   O peration     | Website:  https://openfoam.org
    \\  /    A nd           | Version:  11
     \\/     M anipulation  |
\*---------------------------------------------------------------------------*/
FoamFile
{
    format      ascii;
    class       volScalarField;
    location    "0.7";
    object      gradTx;
}
// * * * * * * * * * * * * * * * * * * * * * * * * * * * * * * * * * * * * * //

dimensions      [0 -1 0 1 0 0 0];

internalField   nonuniform List<scalar> 
5712
(
-8354.19
-10694.3
-19480.4
-28765.8
-29503.1
-50715.6
-22340.5
-56488.1
-17939.9
-39332.8
-26820.7
-40981.4
-23827.9
-31663.4
-10560.1
-12190.1
-19411.8
-22285.3
-24570.2
-24450.2
-19023.7
-23135.4
-27763.5
-24806.9
-7035.41
-5524.97
-8715.51
-6080.43
-16473
-13636.1
-27764.6
-20671.2
-21390
-22398
-24443.7
-24056.1
-9247.13
-6934.14
-49494.1
-66305.1
-32368.7
-39659.2
-65069.5
-84720.7
-33931.6
-38910.4
-37447.4
-52909.1
-33189.2
-43747
-19782.9
-31530.2
-4016.3
-1379.18
-4190.26
-1534.85
-12060.8
-4954.73
-16269
-6103.9
-12049.4
-4586.06
-12269.1
-4006.39
-20587.6
-6663.61
-26542.7
-9102.62
-29704.3
-15208.3
-27398.1
-16234
-26918.9
-17417.1
-23926.6
-17473.9
-22470.1
-13592.5
-22567.2
-12005.1
-28448.5
-17812.7
-28621.2
-17908.4
-25446.2
-18333.6
-25809.3
-18310.3
-24259.9
-15402.5
-25154.9
-15737.2
-23387
-10580.5
-11449.1
-14502.5
-23358.9
-11651.3
-10220.3
-14964.7
-24785.1
-10444.2
-12776.8
-14459.5
-26078.3
-10677.6
-13789.1
-15015
-5162.94
-5668.06
-1792.75
-3755.6
-14816.4
-15686.3
-6046.2
-11374.7
-18929.9
-20565.3
-10024.6
-17333.9
-12162.3
284.944
-15634.7
-21057
-12459
758.254
-6302.24
-14601
-24663
-19944.4
-11957.7
-15353.9
-14577.9
-13596.8
-21874.6
-4655.32
-3590.52
-2755.58
-2652.88
-12818.6
-10012.8
-8355.64
-7718.58
-15585.8
-11894.7
-10936.5
-9458.97
-5096.76
-6768.17
-11267.7
-11915.8
-16046.5
-14205.9
-18557.4
-15263.2
-14558.8
-12101.3
-9591.66
-8922.84
-13136.7
-8713.75
-12803.1
-7767.76
-11912.7
-6916.95
-15256.1
-9294.52
-11117.8
-3374.54
-10056
-9519.06
-13171.7
-15569.3
-14671.5
-19916
-8609.77
-8167.33
-10372.9
-1338.37
-9137.93
-15854.1
-8730.82
-17242.8
-14601.2
-24849.6
-14832.9
-26659.4
-7597.08
-14470.1
-7075.54
-15664.9
-10854.3
-7030.57
-15737.6
-5513.48
-10440.7
-160.549
-13443.9
671.916
-10664.9
-11097.6
-16552.2
-7192.84
-9110.06
-13263.9
-14939.7
-9500.41
-2552.82
-2041.64
-1535.56
-1895.46
-1581.83
-1239.48
-7268.13
-4989.57
-3634.64
-5100.67
-3393.27
-2483.36
-8035.09
-5803.67
-4837.18
-6013.11
-3977.58
-3329.86
-5191.02
-3642.73
-3195.79
-9611.86
-5682.28
-4089.08
-10198.1
-5916.91
-3958.42
-10602.8
-6761.57
-5127.41
-8209.61
-4391.39
-2887.26
-13531.2
-9556.93
-6881.3
-9736.95
-6651.18
-4378.05
-9804.89
-6163.07
-3772.46
-9210.19
-5417.24
-3145.56
-10993.9
-5326.37
-2314.6
-11733
-15475.2
-9625.65
-12042.3
-13589.5
-19312.2
-12482.9
-17428.3
-6.60068
-682.817
481.261
-197.828
-3099.37
-3249.87
-1497.48
-890.104
-1221.78
-2843.38
-10111.8
-14236.6
-6520.44
-4038.73
-11422.2
-11389.2
-18423.7
-20335.7
329.382
4227.31
-8327.61
-7746.74
-7443.81
-5668.95
-1031.69
-534.269
-802.269
-406.927
-2123.77
-246.225
-71.0237
480.958
-9207.64
-2126.94
-6626.39
-1733.14
-9227.75
-2690.51
-10973.8
-3226.54
-10234.8
-12330.9
-9330.26
-11958.5
-16834.2
-16694.9
-15947.6
-15693.9
-6038.26
-8822.55
-7010.72
-8802.42
-9775.63
-11486.8
-10607
-11477.9
-16590.1
-15361.3
-17283.8
-15305.7
-6008.26
-8492.65
-6378.46
-8518.45
186.667
-770.353
-6047.22
-2862.66
551.519
-457.121
-5595.76
-2504.07
-170.419
-984.425
-6130.24
-3109.61
-445.219
-1120.8
-6048.26
-3139.19
531.968
603.253
-151.871
24.9025
2337.65
2242.08
171.06
395.218
396.585
1451.42
-1151.26
-497.177
9333.23
9990.81
4681.33
3468.66
544.849
10778.9
9884.52
3440.77
4897.82
896.195
-11255.5
-8324.48
-6546.11
-5304.7
-2421.99
510.209
387.871
74.0758
52.7929
1683.71
1343.05
258.112
177.491
1725.54
1744.59
-156.927
-149.321
4663.7
1479.09
6704.81
3400.35
2548.2
1502.03
2810.41
2016.2
100.931
-287.34
-4166.57
-2489.87
-1495.99
389.684
-1047.44
340.355
-1079.84
-75.4576
-752.54
-690.593
-5052.21
-4190.28
-9285.08
-5372.03
-8331.9
-7570.36
-12439.1
-9487.31
-6499.44
-3553.36
-3282.99
-2889.69
-10868.6
-4704.57
-11831.3
-5217.9
-13813.1
-9745.57
-14646.9
-10496.9
-7875.5
-2936.01
-8711.33
-3352.23
-4196.99
-2794.37
-2134.12
-2874.73
-2585.11
-2477.93
-1762.31
-2637.29
-4860.52
-2691.65
-2397.86
-3300.22
-5947.09
-2891.68
-3266.57
-3356.5
291.383
245.847
250.466
31.7165
85.6677
86.7186
1075.1
925.182
831.523
129.723
250.993
229.573
1501.8
1325.75
1186.27
-134.337
254.863
303.017
475.333
393.895
142.24
1764.98
1628.87
1366.63
1267.99
1265.4
1146.99
1601.02
1415.49
1236.47
-427.646
100.187
136.975
-3435.11
-1855.92
-992.598
10.5856
576.661
823.221
109.812
691.896
885.721
28.8247
569.198
683.264
-834.367
118.707
218.664
-0.0545178
3.25595
3.54288
6.48146
124.919
48.2471
29.0641
18.4014
-32.5472
-2.37192
29.8302
34.6266
177.512
73.738
74.8998
52.8776
-179.762
-38.908
43.8795
68.1417
-21.6445
21.6262
41.4434
36.9331
-76.3786
1.47348
4.86182
5.70637
-181.444
-41.2489
12.6968
22.3097
-602.927
-157.985
-37.451
10.99
-814.111
-205.711
-70.6469
34.8571
-412.711
-95.727
-0.352145
46.7517
-665.023
-161.612
-71.3039
23.541
-637.691
-171.428
-20.5887
30.9886
-906.771
-236.058
-75.4576
45.6957
-674.491
-190.381
-15.5018
44.4265
-959.28
-256.972
-82.3599
46.3467
-0.347035
1.10349
4.24795
9.48567
24.7148
9.84853
0.576682
8.05914
31.3469
13.1713
21.9331
30.2659
102.307
37.8358
7.6417
23.4651
-239.422
-62.9043
4.19862
43.6457
-93.4245
-14.2685
-4.20738
38.5622
-50.168
13.9378
32.0725
52.0695
3.63247
20.7128
-6.18352
37.7568
-559.972
-130.524
-57.3654
47.47
46.0696
17.3427
6.38638
8.13241
80.905
28.0142
9.89752
5.10122
98.0353
39.7969
9.29528
18.5415
211.782
74.638
23.4888
12.4083
66.9514
39.098
7.82405
28.2868
281.952
104.397
34.0058
18.4437
-27.0112
27.143
6.31166
39.2891
246.931
109.942
36.9538
21.3518
-258.197
-22.7385
-27.9701
27.9491
111.217
87.7801
26.2263
18.4593
-621.227
-107.587
-50.8421
26.3103
-186.904
-4.61846
0.811586
9.44194
-464.435
-60.5888
-42.5305
23.8424
-80.9121
36.0828
13.5016
14.4371
-744.859
-149.995
-61.0235
28.2423
-265.92
-36.0108
-6.97747
6.71905
-821.353
-181.724
-70.3925
25.2963
-321.742
-60.1683
-14.1599
4.10698
3.1211
1.02093
0.340885
0.119692
0.0525114
4.39606
1.50341
0.525865
0.189912
0.0846675
7.44771
2.31088
0.765561
0.269056
0.118296
9.12264
3.16268
1.1199
0.407944
0.18299
9.67099
2.83264
0.928613
0.326469
0.143852
11.4397
4.03476
1.43819
0.526727
0.237271
5.18691
1.89101
0.682777
0.252877
0.115023
3.78517
1.12537
0.372194
0.133124
0.0597717
8.49091
2.69716
0.909601
0.324755
0.144549
3.90049
1.1081
0.357555
0.125452
0.0554606
10.0174
3.21595
1.10939
0.400596
0.179111
4.00541
1.15735
0.378479
0.133288
0.0588754
6.21765
1.71859
0.546453
0.19072
0.0842547
3.64716
0.944056
0.297583
0.104234
0.0462626
5.70311
1.20728
0.32056
0.101605
0.0427953
3.11519
0.581479
0.143412
0.0438894
0.018209
2.66907
0.819971
0.265937
0.091768
0.0398215
2.20352
0.69402
0.228025
0.0788978
0.0341968
6.84576
2.03289
0.661686
0.230174
0.100478
5.87103
1.79452
0.590721
0.205854
0.0897451
9.00555
2.44758
0.776657
0.268495
0.117123
7.88156
2.38243
0.793361
0.279851
0.123105
8.50877
2.62956
0.899528
0.323313
0.144055
5.53375
1.75911
0.601807
0.215489
0.0956231
4.25841
1.39151
0.487863
0.177404
0.0795733
-49.2248
-302.258
87.4645
-677.885
554.694
-732.833
1480.02
-268.3
2261.06
1063.13
-306.313
-1108.74
1561.12
1383.48
-1179.06
-2207.07
-1718.77
-2660.33
-1053.45
-257.898
-61.327
-14.6483
-4.22496
-248.351
-148.146
-21.3247
-6.4803
-3.14559
-3234.16
-786.959
-187.839
-44.6919
-12.9257
-564.159
-185.316
-51.6295
-12.3743
-4.02965
-5384.67
-1313.78
-315.01
-75.3665
-21.8186
-962.467
-329.754
-89.6383
-23.5178
-7.04107
-7119.24
-1745.04
-421.42
-101.516
-29.5699
-1156.66
-424.395
-118.198
-31.1961
-9.31108
-8744.93
-2169.43
-529.467
-128.779
-37.8987
-1339.5
-531.109
-150.762
-40.0851
-12.0872
-10069.6
-2585.65
-644.145
-159.353
-47.6351
-2368.63
-779.509
-207.94
-53.0327
-15.7829
-9485.36
-2423.63
-599.264
-147.043
-43.5932
-1719.06
-640.782
-178.115
-46.5643
-13.9085
-10312.5
-2654.21
-663.869
-164.956
-49.5554
-2755.29
-867.285
-226.895
-56.9309
-16.8725
-10721.3
-2738.19
-686.498
-170.755
-51.3626
-2895.75
-910.092
-239.335
-56.1916
-17.4666
-820.039
-8696.48
-7939.78
-2840.9
1787.8
3027.01
8329.79
12349.5
1439.14
8854.09
-2890.21
1910.81
2273.13
5182.77
10376.7
15002
15751.4
20014.5
6437.8
8402.03
-19342.2
-13307.2
-2397.72
-1408.11
-960.322
-1235.95
-1475.02
-11158.4
-8824.44
-7946.2
-7223.7
-5005.12
-3710.8
-5522.3
-2889.46
-2433.46
-2688.34
-1827.68
-18352
-8147.55
-2056.86
-3758.67
-6133.91
-3875
-3794.1
-2606.32
-1282
-1743.28
-2230.96
-2473.34
-18800.4
-11495.9
-10646.9
-7185.42
-6385.3
-7419.32
-2226.07
-2519.33
-4077.57
-12496.6
-9613.84
-6905.97
-5162.07
-3492.78
-8181.35
-5257.47
-3606.48
-2327.56
-997.383
-2040.21
-1616.82
-1154.41
-690.372
-230.526
-1221.54
-986.624
-714.848
-430.553
-143.699
-829.385
-665.835
-479.072
-286.74
-95.32
-1077.95
-875.064
-636.263
-383.73
-128.02
-1269.87
-1016.66
-730.438
-437.247
-145.502
-6579.05
-4479.83
-3005.38
-2224.96
-1863.41
-4394.34
-2855.45
-1727.63
-1185.08
-710.146
-4821.95
-2854.55
-1823.19
-1105.28
-459.897
-3512.01
-2157.84
-1272.63
-774.045
-378.684
-2233.93
-1295.6
-726.589
-418.448
-173.435
-2816.46
-2000.86
-1305.34
-738.634
-244.413
-3678.93
-2337.89
-1465.55
-825.171
-286.098
-1840.81
-1095.5
-641.495
-336.335
-108.754
-1931.31
-1423.94
-953.242
-544.999
-178.684
-2063.77
-1472.1
-955.243
-532.473
-171.999
-1469.23
-1095.03
-737.857
-422.138
-137.674
-11212
-7689
-5360.64
-3851.2
-2849.88
-5673.34
-3869.33
-2591.88
-1571.18
-624.115
-1642.82
-1222.88
-828.774
-480.48
-160.078
-3046.13
-2306.31
-1590.67
-936.704
-316.232
-4785.62
-3533.47
-2412.6
-1433.79
-505.941
-3151.15
-2398.97
-1666.6
-988.944
-335.766
-3138.34
-2425.5
-1702.63
-1013.5
-341.698
-2180.89
-1698.7
-1195.38
-708.868
-236.512
-1068.73
-825.89
-574.185
-335.644
-110.484
-1486.64
-1177.69
-837.801
-497.973
-165.208
-1828.08
-1391.17
-957.211
-557.772
-184.398
-2062.37
-1599.3
-1119.88
-661.101
-219.952
-11965.9
-8839.37
-6339.22
-4566.36
-3088.6
-7520.84
-5032.52
-3456.79
-2198.62
-949.206
-7321.73
-5342.46
-3606.98
-2277.96
-953.798
-5344.59
-3789.52
-2597.47
-1584.45
-587.645
-5056.27
-3790.3
-2620.83
-1570.58
-552.179
-5475.28
-3864.19
-2635.24
-1600.65
-585.863
-1822.93
-1392.38
-966.666
-571.071
-192.027
-2145.97
-1699.52
-1210.44
-721.202
-239.86
-3363.94
-2588.81
-1808.6
-1071.89
-359.973
-7331.81
-15106.6
-15340
-42853
-14690.5
-55715.8
-8169.51
-19952.9
-14766.4
-11336.4
-25142.1
-20794.1
-14227.7
-12902.1
-27463.2
-21238.1
-5487.3
-4161.51
-10844.5
-7643.6
-12263.5
-9326.52
-33537.3
-25298.5
-19859.7
-14699.2
-20769.9
-12316.2
-1429.95
-5106.67
-52302.5
-67537.3
-31428.2
-39580.2
-67427.5
-85774.8
-32801.8
-38659.3
-39727.2
-54105.6
-32398
-43842.4
-22299.4
-32794
-2767.57
-755.473
-4921.98
-1698.99
-9400.38
-4334.34
-19165.4
-7025.03
-4178.66
-2444.75
-10152.6
-3265.73
-20855
-6656.64
-26921.7
-9213.05
-19772.6
-10738.4
-23600.5
-14007.7
-17050.4
-12502.4
-20033.9
-15142.8
-19820.5
-11814.1
-15457.8
-8536.64
-27043.4
-16833.4
-28288.1
-17645.4
-23908.4
-17311.1
-25399.5
-18034.7
-23378.7
-14611
-24972.6
-15523.2
-22388.4
-10342.5
-10312.5
-14200
-19924.9
-10712.7
-8033.42
-14294.8
-24699.7
-10456.2
-12276.7
-14341.8
-26143.8
-10711.6
-13660.5
-14988
-1596.66
-1532.05
-446.774
-2050.26
-6483.7
-6951.74
-4317.64
-9047.61
-4226.81
-5200.56
-7051.48
-13520.2
-12841
-8983.54
-11423.4
-15111.9
-10990.4
-6682.15
-8004.88
-9087.22
-17634.7
-17785.2
-13716.2
-12690.9
-9954.58
-9325.06
-20046.4
-1693.46
-1249.06
-1029.53
-1154.36
-6130.6
-4717.59
-5506.94
-4859.34
-1558.41
-43.8078
-6701.94
-5294.5
-9425.81
-9919.24
-9071.21
-8415.4
-8365.31
-6051.76
-11346.9
-8814.18
-11995.4
-9320.76
-11814.7
-10922.9
-10874.4
-7209.11
-8805.78
-4934.49
-8535.39
-4572
-13984
-7938.53
-9696.93
-3715.68
-8977.96
-9247.38
-13025.4
-16274.4
-13939.6
-19663.8
-7557.72
-7914.18
-8717.96
-1598.19
-8559.38
-15583.8
-8551.66
-17142.2
-14085.8
-24616.4
-14659.2
-26542.4
-7061.24
-14269.5
-6914.28
-15592.5
-10223.2
-6966.79
-15651.4
-5640.74
-9362.97
-721.616
-13404.3
-377.325
-10356.2
-11005.6
-16514.4
-7198.06
-9007.87
-13227.9
-14924.2
-9500.32
-1159.63
-1058.42
-921.005
-1046.01
-3557.78
-2645.65
-3478.78
-3183.89
617.157
-90.3028
-4043.18
-4279.51
-9490.27
-8367.46
-7662.82
-5983.09
-4832.44
-3718.89
-6972.86
-5535.18
-7827.26
-5546.26
-16342.2
-12914.1
-8041.16
-5778.1
-7022.67
-4327.91
-6515.75
-3322.1
-7768.13
-2586.25
-5735.65
-9291.36
-4852.74
-9832.12
-9480.49
-11397.5
-10872.1
-14716.6
-864.543
-502.224
-446.077
-289.83
-3373.13
-2032.71
-2433.71
-883.321
-712.845
-1296.6
-8037.35
-8400.46
-3814.6
-3186.18
-10103.8
-10947.8
-16947.2
-19863.4
749.767
4349.89
-7160.18
-7312.94
-6738.2
-5436.9
-809.409
-662.323
-803.977
-610.158
-1286.6
-586.719
-86.2488
47.2092
-6959.84
-2546.89
-5893.66
-2043.66
-8540.52
-2794.65
-10668.3
-3244.48
-5332.58
-9996.31
-7308.1
-10610.1
-9382.65
-12530.1
-12889.5
-13683.2
-4885.03
-8135.8
-4199.94
-7963.2
-8758.61
-10832.7
-10284.6
-11289.8
-15211.6
-14456
-16875.7
-15056
-5390.54
-8115.88
-6166.43
-8403.51
265.966
-958.045
-5936.9
-3020.2
302.687
-939.056
-5782.05
-2839.74
-69.6541
-1087.92
-6017.9
-3180.87
-391.311
-1155.05
-6006.42
-3159.81
-798.211
-824.327
-661.671
-638.834
-1519.82
-1471.65
-750.42
-711.295
-6859.29
-5961.57
-2400.29
-2192.58
-2834.66
-4073.72
-3198.69
542.815
-577.542
-246.834
-745.338
-3386.5
2491.6
45.4382
-14858.6
-11531
-9125.78
-6766.41
-3166.05
-774.287
-627.4
-652.227
-703.24
-1396.04
-1051.21
-874.93
-1082.36
-5712.71
-5100.17
-2251.06
-2601.68
-4208.21
-5826.84
-2293.64
-4073.19
-3854.46
-3991.09
-379.262
-768.078
-1102.45
-1681.56
-9220.56
-6928.58
-6607.66
-4388.16
-4974.4
-3261.91
-3590.01
-2317.19
-1771.03
-1736.06
-6895.39
-6376.34
-9606.42
-5957.97
-9665.52
-9643.13
-12336.8
-9925.03
-7040.69
-4097.93
-4952.95
-4617.9
-10796.4
-4952.83
-11772.4
-5249.02
-13504.5
-9875.87
-14519.6
-10482.7
-7982.49
-3196.84
-8713.18
-3400.59
-4726.02
-3220.22
-2560.53
-3265.36
-3854.12
-3687.03
-2515.84
-3422.3
-5053.63
-2919.72
-2598.09
-3509.72
-5988.27
-2947.96
-3321.29
-3408.54
-449.249
-394.956
-500.99
-409.608
-930.55
-1085.05
-714.711
-616.352
-4622.52
-3991.13
-1653.58
-791.562
-6607.43
-5812.87
-4825.07
-3979.87
-3635.58
-2984.67
-1104.65
-1140.17
-1584.81
-798.763
-7302.62
-5656.09
-3840.36
-2908.47
-2708.63
-1871.84
-1668.51
-974.998
-1599.31
-92.0303
-82.9546
-31.1527
-10.6505
0.979008
-27.0825
-16.9156
3.35055
8.45036
-237.097
-86.746
0.320389
24.7592
-114.637
-56.9582
25.2558
33.804
-438.993
-145.739
9.29427
59.9357
-334.775
-126.963
-22.7287
8.59412
-254.957
-88.5996
-35.9844
-11.4274
-251.022
-79.0891
-4.66225
14.8275
-752.488
-230.953
-72.1979
-5.91076
-906.767
-246.451
-88.538
30.9955
-678.486
-203.23
-43.5441
28.9009
-805.198
-215.032
-93.3695
20.5134
-735.022
-223.119
-43.8249
21.8445
-962.119
-262.988
-88.4328
41.7726
-711.568
-211.073
-24.894
40.666
-978.13
-266.688
-87.1307
44.9079
-85.7684
-29.2665
-6.21737
6.64247
-71.7276
-21.1263
-11.1771
5.05404
-214.527
-72.929
-6.35733
21.9912
-172.053
-51.2403
-25.1986
14.656
-494.969
-152.2
-24.2043
37.6862
-431.859
-123.675
-44.3928
29.3261
-497.964
-144.539
-22.2891
35.6594
-378.465
-103.595
-48.4644
32.5246
-792.86
-207.011
-85.4665
48.654
-50.5749
-14.1497
-4.0017
4.81814
-19.1566
-6.2397
-1.28076
0.585512
-155.65
-42.6245
-20.1536
8.55419
-64.3648
-19.3911
-8.10491
-0.250763
-289.179
-75.798
-33.4715
14.4781
-136.658
-36.87
-12.5902
0.0200133
-447.554
-111.579
-42.3995
24.6011
-249.557
-58.828
-17.7301
0.0992057
-605.376
-143.631
-75.4727
10.7658
-338.758
-73.5504
-28.985
-4.03219
-820.053
-194.516
-87.9257
12.0316
-361.84
-81.9821
-30.053
-4.24557
-770.635
-180.532
-91.0562
5.61693
-384.015
-83.8783
-30.757
-4.7159
-848.439
-199.321
-83.1474
19.771
-349.746
-77.2571
-24.1849
-0.797895
-851.879
-197.104
-77.4931
22.5435
-344.32
-72.1009
-19.3366
1.81703
0.623916
-0.0705214
-0.0919297
-0.0486545
-0.0264174
-0.100996
-0.358739
-0.200465
-0.0915217
-0.0472847
1.69296
-0.198647
-0.227782
-0.117392
-0.0630411
-0.698275
-0.931193
-0.484496
-0.215872
-0.110204
2.69004
-0.243745
-0.28956
-0.147713
-0.0788196
-1.64074
-1.35803
-0.670306
-0.293289
-0.148449
-1.37417
-0.799878
-0.373201
-0.159559
-0.0796192
0.516259
-0.230894
-0.163755
-0.0771955
-0.0398015
0.624501
-0.526236
-0.349471
-0.164675
-0.0855679
0.963143
-0.112049
-0.120862
-0.0608111
-0.0321781
-0.15624
-0.864391
-0.465197
-0.208112
-0.106371
0.787047
-0.148486
-0.127837
-0.0626781
-0.0330317
1.7819
-0.130344
-0.182033
-0.0939123
-0.0499846
1.15725
-0.0886675
-0.108076
-0.0542138
-0.0285134
3.74072
0.377976
-0.00862624
-0.0276412
-0.0183636
2.30398
0.236712
0.00650286
-0.00988079
-0.00724635
0.85163
0.00432336
-0.0563617
-0.0330007
-0.0184778
0.346901
-0.0457563
-0.0526777
-0.0280674
-0.0154468
1.80826
-0.124275
-0.177591
-0.0933043
-0.050572
0.726838
-0.211554
-0.16588
-0.0822395
-0.0440715
3.40929
-0.0437835
-0.201768
-0.110124
-0.0600523
0.571873
-0.429242
-0.265337
-0.123956
-0.0648486
-0.0130356
-0.688343
-0.362041
-0.161076
-0.0823632
-0.490595
-0.481072
-0.235539
-0.103656
-0.0530358
-0.700281
-0.475195
-0.217539
-0.0932674
-0.0470036
111.02
-159.93
419.646
-365.761
848.589
-426.284
1518.82
-161.8
2000.7
784.279
-371.985
-1229.87
1256.94
861.737
-1174.21
-2221.57
-1710.51
-2656.39
-1019.28
-253.305
-60.7649
-14.6039
-4.2316
-230.93
-144.158
-21.0924
-6.45928
-3.1372
-3143.37
-774.666
-186.377
-44.6016
-12.9549
-534.965
-182.975
-51.5348
-12.4203
-4.04542
-5260.58
-1296.95
-313.108
-75.2927
-21.8786
-947.928
-330.094
-90.0451
-23.634
-7.07313
-7008.26
-1730.1
-419.942
-101.552
-29.664
-1194.05
-432.036
-119.632
-31.4513
-9.36454
-8696.34
-2163.17
-529.35
-129.044
-38.04
-1441.56
-546.623
-153.186
-40.47
-12.1604
-10118.4
-2595.45
-646.385
-159.906
-47.7965
-2411.75
-788.179
-209.467
-53.2931
-15.8305
-9515.94
-2428.53
-600.741
-147.521
-43.7613
-1823.3
-656.885
-180.622
-46.9566
-13.9791
-10353
-2662.92
-665.769
-165.39
-49.6718
-2767.13
-870.393
-227.503
-57.0449
-16.8953
-10737.1
-2741.62
-687.242
-170.921
-51.4063
-2897.24
-910.692
-239.471
-56.2142
-17.4723
-598.051
-8454.35
-7236.78
-2227.62
-1687.43
-769.674
-3891
-2427
-7545.56
-6903.42
-3698.34
-2649.07
-56.8948
-102.237
-205.331
-390.928
-694.268
-1149.87
-45.3293
-114.382
-271.641
-548.445
-973.338
-1549.31
-39.8343
-17.5673
-79.0904
-49.9927
-169.097
-128.901
-332.877
-288.093
-571.331
-509.147
-925.16
-760.658
-1720.53
-2335.93
-3042.32
-5472.6
-6987.27
-8211.72
-2217.41
-2842.3
-3251.39
-3395.47
-3324.66
-3214.93
-50.7159
-42.2456
-31.5088
-19.3754
-6.52942
-90.9419
-75.5585
-56.2062
-34.4893
-11.6094
-182.188
-150.913
-111.919
-68.512
-23.0322
-345.745
-285.301
-210.787
-128.665
-43.1894
-611.276
-501.814
-368.931
-224.388
-75.1864
-1005.8
-819.709
-598.679
-362.484
-121.218
-40.355
-33.5632
-24.9935
-15.3495
-5.16912
-101.581
-84.2352
-62.5393
-38.3174
-12.8874
-240.613
-198.913
-147.23
-89.9965
-30.2316
-484.146
-398.653
-293.942
-179.164
-60.0975
-855.33
-700.663
-514.135
-312.298
-104.583
-1353.34
-1101.34
-803.396
-486.087
-162.51
-35.5461
-29.6478
-22.1424
-13.6303
-4.59605
-15.6851
-13.0916
-9.78456
-6.02664
-2.03279
-70.4505
-58.6319
-43.6895
-26.845
-9.04285
-44.5743
-37.1405
-27.7089
-17.0421
-5.74367
-150.291
-124.741
-92.6952
-56.832
-19.1213
-114.691
-95.3205
-70.9274
-43.5313
-14.6542
-294.949
-243.91
-180.58
-110.397
-37.0863
-255.523
-211.55
-156.795
-95.9318
-32.2395
-504.062
-414.738
-305.54
-186.094
-62.3952
-449.74
-370.518
-273.262
-166.547
-55.8561
-810.58
-661.674
-483.835
-293.113
-98.0262
-667.542
-545.756
-399.489
-242.101
-80.9583
-1490.42
-1202.36
-870.642
-524.434
-175.101
-1993.38
-1584.8
-1134.92
-680.061
-227.176
-2534.86
-1973.39
-1393.7
-832.201
-279.988
-4381.08
-3311.68
-2304.93
-1382.59
-479.114
-5248.3
-3819.41
-2626.69
-1604.99
-597.453
-5904.28
-4197.44
-2867.51
-1777.47
-695.777
-1921.72
-1551
-1123.57
-676.98
-226.035
-2437.3
-1946.58
-1398.77
-839.407
-280.212
-2746.42
-2163.45
-1539.93
-921.155
-308.3
-2801.03
-2163.89
-1522.7
-910.195
-307.778
-2631.24
-1972.98
-1369.59
-823.681
-287.226
-2448.06
-1787.42
-1226.93
-743.862
-268.07
-57.7934
-105.487
-212.734
-405.988
-722.744
-1196.13
-46.4674
-118.585
-281.215
-566.793
-1003.16
-1589.36
-40.5606
-18.0579
-81.9134
-52.1949
-176.244
-135.61
-349.305
-306.008
-607.528
-561.166
-989.632
-868.776
-1782.61
-2410.31
-3125.06
-5521.94
-6989.98
-8204.62
-2260.97
-2879.9
-3276.1
-3401.45
-3316.01
-3208.94
-51.5364
-42.9498
-32.0509
-19.7175
-6.6464
-93.9114
-78.109
-58.1709
-35.7298
-12.0337
-188.96
-156.738
-116.411
-71.3514
-24.0039
-359.547
-297.196
-219.98
-134.484
-45.1822
-637.439
-524.423
-386.447
-235.495
-78.9944
-1048.59
-856.962
-627.738
-381.007
-127.587
-41.3945
-34.4557
-25.6807
-15.7834
-5.3175
-105.424
-87.5393
-65.087
-39.9272
-13.4382
-249.387
-206.474
-153.074
-93.6961
-31.4987
-501.014
-413.243
-305.259
-186.347
-62.5616
-882.889
-724.644
-532.842
-324.224
-108.683
-1390.72
-1134.21
-829.293
-502.72
-168.253
-36.2081
-30.2149
-22.578
-13.9048
-4.68981
-16.1316
-13.4733
-10.0772
-6.21069
-2.0956
-73.0245
-60.8372
-45.384
-27.9128
-9.40768
-46.5782
-38.8532
-29.0216
-17.8677
-6.02542
-156.81
-130.329
-96.99
-59.5391
-20.0463
-120.795
-100.537
-74.9246
-46.0445
-15.5118
-309.95
-256.784
-190.487
-116.646
-39.2226
-271.85
-225.529
-167.526
-102.689
-34.5471
-537.093
-443.053
-327.299
-199.803
-67.0788
-496.887
-410.609
-303.824
-185.684
-62.372
-869.699
-712.619
-523.175
-317.99
-106.541
-765.465
-628.939
-462.823
-281.713
-94.4363
-1548.61
-1253.72
-911.208
-550.535
-184.124
-2064.61
-1648.98
-1186.51
-713.693
-238.902
-2617.04
-2049.77
-1456.63
-874.003
-294.771
-4442.34
-3377.49
-2364.97
-1425.54
-495.29
-5270.09
-3851.99
-2661.72
-1633.12
-609.373
-5906.87
-4205.91
-2878.55
-1787.28
-700.269
-1963.11
-1588.07
-1153.27
-696.289
-232.748
-2474.26
-1980.79
-1426.95
-858.106
-286.791
-2772.69
-2189.37
-1562.34
-936.543
-313.835
-2811.3
-2176.85
-1535.66
-919.941
-311.511
-2628.12
-1974.03
-1373.07
-827.406
-288.985
-2444.64
-1786.01
-1226.94
-744.522
-268.521
-19277.5
-13287.7
-2512.88
-1515.82
-1163.18
-1431.32
-1648.91
-11708.9
-11837.6
-9170.93
-10259.8
-4857.39
-7933.51
-3436.58
-3681.97
-2473.36
-18672.8
-8784.92
-2549.52
-4260.11
-6560.47
-4118.43
-4037.8
-2870.84
-1594.84
-2073.37
-2836.34
-2848.82
-18619.5
-11486.7
-10907.7
-7305.04
-6578.46
-7654.81
-2524.65
-2782.89
-4381.64
-12471
-9614.73
-6926.63
-5196.34
-3524.92
-8187.48
-5274.93
-3627.97
-2346.69
-1005.73
-2150.5
-1716.1
-1234.06
-742.203
-248.579
-1320.99
-1072.93
-781.91
-473.159
-158.323
-1013.68
-822.872
-598.962
-361.889
-120.926
-1255.25
-1026.04
-751.492
-455.943
-152.62
-1430.56
-1156.11
-838.671
-505.905
-169.042
-7679.83
-5650.75
-4019.41
-2971.88
-2305.33
-7916.67
-6066.55
-4322.33
-2980.62
-1501.31
-6213.01
-4129.39
-2836.02
-1758.15
-680.333
-6931.03
-5146.8
-3619.54
-2344.23
-990.377
-3911.88
-2964.64
-2056.64
-1215.09
-407.608
-5910.46
-4190.22
-2859.36
-1691.68
-581.754
-2855.79
-2216.03
-1558.39
-924.361
-308.162
-3046.03
-2354.38
-1650.88
-977.812
-325.957
-2079.99
-1629.99
-1153.41
-685.526
-228.06
-11918.2
-8500.15
-6109.94
-4424.79
-3176
-6389.35
-4558.49
-3161.69
-1950.98
-764.053
-2107.61
-1630.68
-1146.76
-682.629
-229.602
-3528.63
-2738.65
-1934.22
-1158.39
-393.356
-5237.46
-3966.06
-2772.67
-1674.3
-592.68
-3394.91
-2625.18
-1851.63
-1110.99
-378.908
-3374.93
-2640.45
-1876.14
-1126.97
-381.468
-2431.69
-1921.56
-1371.77
-822.403
-275.826
-1361.27
-1081.81
-773.76
-462.624
-154.126
-1789.46
-1438.36
-1038.64
-624.747
-208.59
-2388.75
-1876.16
-1331.45
-794.06
-265.311
-2414.54
-1908.59
-1362.04
-815.672
-273.209
-11928.7
-8883.8
-6433.6
-4680.83
-3197.27
-7573.14
-5109.34
-3537.64
-2264.16
-977.357
-7737.29
-5777.19
-4001.76
-2565.18
-1072.52
-5505.18
-3964.21
-2755.6
-1697.4
-629.954
-5271.81
-4005.83
-2806.89
-1698.57
-599.449
-5759.91
-4150.38
-2884.74
-1774.06
-651.274
-2106.28
-1644.03
-1165.63
-699.067
-236.401
-2391.55
-1914.4
-1378.45
-828.387
-276.745
-3659.78
-2857.56
-2025.06
-1213.04
-409.323
-236.26
-702.279
-1187.35
-1712.69
-2264.1
-2817.92
-3346.53
-8857.29
-8083.92
-3144.19
-11029.2
-9503.74
-10521.3
-11529.8
-3117.83
-1996.73
-7309.01
-3923.09
-13037.7
-9983.29
581.151
-2665.3
-7225.76
-6451.64
-2465.69
-9127.46
-7448.2
-8534.57
-9355.82
-2576.14
-1087.76
-6357.52
-1798.13
-10245.5
-5943.83
2618.88
-1864.63
-5235.11
-4590.9
-1701.79
-6840.12
-3953.41
-6469.87
-6774.7
-1881.24
-1014.73
-4348.71
-1969.67
-7604.02
-1738.13
2796.62
-1269.79
-3768.27
-3287.04
-1178.99
-4796.7
-1888.23
-4898.16
-5340.31
-1338.06
-1095.21
-3056.85
-2068.35
-6188.35
140.257
2103.5
-942.331
-2957.59
-2572.75
-901.378
-3456.58
-1321.69
-4017.34
-4827.16
-984.129
-1239.8
-2013.74
-2044.24
-5120.8
346.506
416.668
-773.722
-2430.61
-2194.08
-754.927
-2979.53
-1682.36
-3454.5
-4415.71
-698.511
-979.391
-1469.28
-1947.5
-5064.5
-914.077
-664.935
-1421.57
-3439.87
-5571.62
-2182.58
-5452.23
-9537.92
-7947.46
-11251.4
-887.013
-493.938
-3558.78
-1736.58
-855.455
-8434.2
-3761.89
-1291.89
-3128.13
-4754.32
-1844.95
-4890.82
-8334.28
-6933.11
-9183.85
-885.339
-371.031
-3606.12
-1485.99
-6.84404
-7917.66
-2368.88
-1076.24
-2609.7
-3659.48
-1395.58
-4216.16
-6849.91
-5542.84
-7444.11
-731.234
-414.769
-2851.9
-1465.99
-221.155
-5723.9
-2030.42
-847.891
-2168.52
-2756.26
-1028.77
-3609.47
-5588.09
-4519.18
-6142.71
-603.372
-401.65
-2394.18
-1427.36
-149.044
-4793.55
-1869.87
-699.281
-1803.69
-2230.56
-818.107
-2973.02
-4676.66
-3789.4
-5428.63
-510.338
-451.813
-1957.94
-1508.15
-324.49
-4230.93
-1899.11
-604.066
-1487.01
-1927.05
-698.305
-2566.4
-4468.19
-3278.46
-5006.87
-497.703
-528.179
-1622.51
-1415.84
-593.259
-4288.32
-2204.43
7597.17
9606.25
19525.6
28863.6
29540.3
50696.3
22351.1
56491.1
17955.8
39339.2
26875.6
40983.8
23851.2
31770.5
9072.5
10388.3
19427.2
22288.8
24563.9
24447
19026
23133.2
27760.4
24803.4
6489.53
5138.31
7930.47
5548.82
16475.5
13603.8
27830.7
20705.6
21359.4
22402.6
24433
24056.4
9244.25
6905.74
49500.9
66313.8
32369.5
39661.7
65077.4
84730.3
33931.5
38911.6
37452.7
52916.9
33188.5
43750.5
19790.7
31537.4
3784.95
1322.74
3848.15
1425.43
12023.9
4935.37
16279
6106.4
12041.6
4581.48
12251.8
3999.55
20588.8
6663.62
26546.5
9103.91
29703.6
15207
27395.9
16232.4
26915.8
17414.5
23923.5
17471.5
22466.6
13590.8
22565.9
12003.6
28447.7
17811.5
28621.1
17907.3
25444.5
18331.7
25808.3
18308.7
24259.2
15401.5
25155.3
15736.4
23381.9
10578.8
11447.4
14502.3
23354.9
11649.5
10218.3
14964.3
24784.8
10444.2
12776
14459.7
26079.8
10678.3
13788.8
15015.3
4855.71
5269.22
1723.92
3529.64
14745.3
15628
6010.52
11321.4
18918.2
20552.6
10018.9
17323.8
12162
-284.086
15633.3
21052.1
12456.7
-757.294
6302.3
14599.8
24657.3
19940.7
11956.1
15352.6
14576.1
13593.9
21873.5
4227.28
3221.32
2464.42
2410.61
12871.5
10059.3
8451.18
7779.8
15575.7
11891.5
10932.1
9457.62
5096.82
6767.95
11267.2
11915.2
16044.7
14204.5
18552.2
15260.6
14557
12101
9590.79
8922.32
13135.8
8713.26
12801.6
7767.03
11910.6
6916.02
15255.7
9294.62
11116.9
3374.27
10054.8
9518.6
13170.3
15568.3
14669.7
19914.7
8608.87
8167.11
10372
1338.15
9136.89
15853.7
8729.81
17242.4
14599.7
24848.3
14831.5
26658.2
7596.36
14470
7074.87
15664.9
10853.8
7030.57
15738
5513.7
10439.9
160.431
13444.1
-671.684
10664.8
11097.7
16552.8
7193.1
9109.88
13264.2
14940.2
9500.75
2237.21
1812.95
1391.08
1714.63
1446.72
1150.39
7323.83
5012.98
3639.05
5153.83
3416.67
2487.58
8036.54
5805.9
4838.69
6014.12
3980.43
3332.31
5190.93
3642.83
3195.94
9611.59
5682.45
4089.35
10197.6
5917.21
3958.87
10602.6
6762.72
5128.61
8209.97
4392.63
2888.6
13530.7
9556.89
6881.52
9736.66
6651.16
4378.22
9804.62
6163.16
3772.75
9210.02
5417.49
3145.99
10994
5326.67
2315.04
11704.5
15457.1
9594.19
12026.5
13576.3
19302.1
12466.8
17419.2
53.9582
595.55
-392.79
152.595
3096.56
3321.03
1494.71
966.118
1193.95
2815.81
10093.8
14214.4
6502.64
4024.52
11414.1
11385.6
18418.9
20333.6
-335.845
-4229.34
8317.18
7741.84
7437.78
5666.61
907.438
486.679
694.992
363.259
2174.39
256.494
126.188
-467.058
9196
2125.62
6618.79
1733.02
9220.27
2688.74
10969.8
3225.28
10223.8
12325.1
9321.57
11953.9
16826.6
16690.3
15941.6
15690.2
6030.44
8818.27
7001.21
8797.38
9770.28
11483.5
10604
11475.6
16586.3
15358.6
17281.4
15303.7
6003.33
8489.55
6375.8
8516.31
-190.783
769.784
6044.18
2861.53
-556.098
456.516
5592.48
2502.97
167.248
983.622
6127.83
3108.55
443.51
1120.22
6046.55
3138.35
-506.258
-568.994
138.401
-27.9268
-2315.29
-2221.53
-166.859
-387.685
-395.384
-1449.96
1151.14
497.373
-9333.06
-9989.82
-4681.58
-3468.81
-544.743
-10777.6
-9883.07
-3440.63
-4896.46
-895.79
11253.2
8321.02
6542.71
5302.01
2421
-487.263
-367.866
-80.606
-58.6693
-1665.9
-1330.72
-246.008
-167.975
-1724.06
-1742.96
157.165
149.433
-4663.43
-1479.11
-6704.44
-3400.28
-2548.48
-1502.12
-2809.84
-2015.57
-100.91
287.255
4165.43
2489.4
1494.45
-390.145
1046.1
-340.708
1078.97
75.2616
752.131
690.301
5049.75
4189.06
9282.46
5370.65
8329.88
7569.22
12436.8
9485.96
6497.09
3552.17
3280.86
2888.62
10866.4
4703.34
11829.5
5216.85
13811.1
9744.3
14645.2
10495.7
7873.51
2934.99
8709.72
3351.38
4195.29
2793.4
2133.19
2873.86
2583.56
2477.04
1761.48
2636.47
4859.06
2690.74
2396.99
3299.33
5945.82
2890.91
3265.77
3355.72
-277.913
-229.969
-233.295
-38.0794
-84.5166
-84.0815
-1065.05
-920.253
-828.551
-121.425
-247.041
-227.214
-1500.46
-1324.79
-1185.65
134.082
-254.671
-302.88
-475.325
-393.831
-142.184
-1764.99
-1628.78
-1366.54
-1267.92
-1265.24
-1146.85
-1600.47
-1414.99
-1236.1
427.429
-100.163
-136.918
3434.75
1855.87
992.667
-10.8222
-576.641
-823.127
-109.97
-691.814
-885.59
-28.8641
-569.055
-683.104
834.072
-118.719
-218.63
1.60139
-2.32544
-2.90943
-5.73892
-116.388
-44.7265
-27.0509
-17.0594
33.1972
2.60263
-29.8348
-34.7072
-174.304
-72.7099
-74.2326
-52.5002
180.001
39.0523
-43.7711
-68.06