/*--------------------------------*- C++ -*----------------------------------*\
  =========                 |
  \\      /  F ield         | OpenFOAM: The Open Source CFD Toolbox
   \\    /   O peration     | Website:  https://openfoam.org
    \\  /    A nd           | Version:  11
     \\/     M anipulation  |
\*---------------------------------------------------------------------------*/
FoamFile
{
    format      ascii;
    class       volScalarField;
    location    "1";
    object      epsilon;
}
// * * * * * * * * * * * * * * * * * * * * * * * * * * * * * * * * * * * * * //

dimensions      [0 2 -3 0 0 0 0];

internalField   nonuniform List<scalar> 
700
(
0.000858651
0.000858651
0.000858651
0.000858651
0.000858651
0.000858651
0.000858651
0.000858651
0.000858651
0.000858651
0.000858651
0.000858651
0.000858651
0.000858651
0.000858651
0.000858651
0.000858651
0.000858651
0.000858651
0.000858651
0.000858651
0.000858651
0.000858651
0.000858651
0.000858651
0.000858651
0.000858651
0.000858651
0.000858651
0.000858651
0.000858651
0.000858651
0.000858651
0.000858651
0.000858651
0.000858651
0.000858651
0.000858651
0.000858651
0.000858651
0.000858651
0.000858651
0.000858651
0.000858651
0.000858651
0.000858651
0.000858651
0.000858651
0.000858651
0.000858651
0.000858651
0.000858651
0.000858651
0.000858651
0.000858651
0.000858651
0.000858651
0.000858651
0.000858651
0.000858651
0.000858651
0.000858651
0.000858651
0.000858651
0.000858651
0.000858651
0.000858651
0.000858651
0.000858651
0.000858651
0.000858651
0.000858651
0.000858651
0.000858651
0.000858651
0.000858651
0.000858651
0.000858651
0.000858651
0.000858651
0.000858673
0.000858655
0.000858651
0.000858651
0.000858651
0.000858651
0.000858651
0.000858652
0.000858651
0.000858638
0.000860547
0.000858941
0.000858674
0.000858652
0.000858653
0.000858661
0.000858694
0.000858765
0.000858749
0.000857615
0.000886084
0.000865256
0.000859303
0.00085867
0.00085868
0.000858898
0.000859665
0.000861206
0.000863001
0.000865606
0.000875438
0.000866629
0.000859986
0.000858776
0.000858616
0.000858545
0.000858598
0.000859185
0.000860391
0.000862338
0.000869464
0.000867332
0.000860709
0.000858996
0.000858683
0.000858603
0.000858476
0.00085839
0.000858641
0.000859588
0.000861375
0.000866217
0.000861156
0.000859273
0.000858774
0.000858675
0.000858639
0.000858566
0.0008585
0.000858677
0.000850424
0.00086199
0.000860499
0.000859334
0.000858847
0.000858699
0.000858666
0.000858654
0.000858631
0.000858632
0.000838573
0.000855064
0.000858236
0.000858784
0.000858755
0.000858691
0.000858663
0.000858655
0.000858652
0.00085865
0.000829459
0.000848197
0.000855305
0.000857757
0.000858453
0.000858616
0.000858646
0.00085865
0.00085865
0.00085865
0.000826446
0.000844995
0.000853752
0.000857133
0.000858241
0.000858553
0.000858629
0.000858642
0.000858633
0.000858595
0.000830968
0.000847181
0.000854697
0.00085748
0.000858349
0.000858582
0.000858633
0.000858633
0.000858608
0.000858563
0.00084567
0.00085439
0.000857426
0.000858362
0.000858597
0.000858653
0.000858702
0.000858873
0.000859477
0.000861229
0.000862085
0.000859293
0.000858752
0.000858666
0.000858654
0.000858655
0.000858668
0.000858717
0.000858863
0.000859153
0.000859655
0.000859037
0.000858759
0.000858676
0.000858656
0.000858653
0.000858655
0.000858665
0.000858691
0.000858737
0.000858875
0.000858756
0.000858685
0.00085866
0.000858653
0.000858651
0.000858652
0.000858653
0.000858657
0.000858664
0.000858691
0.000858672
0.000858658
0.000858653
0.000858651
0.000858651
0.000858651
0.000858651
0.000858652
0.000858653
0.000858657
0.000858654
0.000858652
0.000858651
0.000858651
0.000858651
0.000858651
0.000858651
0.000858651
0.000858651
0.000858652
0.000858651
0.000858651
0.000858651
0.000858651
0.000858651
0.000858651
0.000858651
0.000858651
0.000858651
0.000858651
0.000858651
0.000858651
0.000858651
0.000858651
0.000858651
0.000858651
0.000858651
0.000858651
0.000858651
0.000858651
0.000858651
0.000858651
0.000858651
0.000858651
0.000858651
0.000858651
0.000858651
0.000858651
0.000858651
0.000858651
0.000858651
0.000858651
0.000858651
0.000858651
0.000858651
0.000858651
0.000858651
0.000858651
0.000858651
0.000858651
0.000858651
0.000858651
0.000858651
0.000858651
0.000858651
0.000858651
0.000858651
0.000858651
0.000858651
0.000858651
0.000858651
0.000858651
0.000858651
0.000858651
0.000858651
0.000858651
0.000858651
0.000858651
0.000858651
0.000858651
0.000858651
0.000858651
0.000858651
0.000858651
0.000858651
0.000858651
0.000858651
0.000858651
0.000858651
0.000858651
0.000858651
0.000858651
0.000858651
0.000858651
0.000858651
0.000858651
0.000858651
0.000858651
0.000858651
0.000858651
0.000858651
0.000858651
0.000858651
0.000858651
0.000858651
0.000858651
0.000858651
0.000858651
0.000858651
0.000858651
0.000858651
0.000858651
0.000858651
0.000858651
0.000858651
0.000858651
0.000858651
0.000858651
0.000858651
0.000858651
0.000858651
0.000858651
0.000858651
0.000858651
0.000858651
0.000858651
0.000858651
0.000858651
0.000858651
0.000858651
0.000858651
0.000858651
0.000858651
0.000858651
0.000858651
0.000858651
0.000858651
0.000858651
0.000858651
0.000858651
0.000858651
0.000858651
0.000858651
0.000858651
0.000858651
0.000858651
0.000858651
0.000858651
0.000858651
0.000858651
0.000858651
0.000858651
0.000858651
0.000858651
0.000858651
0.000858651
0.000858651
0.000858651
0.000858651
0.000858651
0.000858651
0.000858651
0.000858651
0.000858651
0.000858651
0.000858651
0.000858651
0.000858651
0.000858651
0.000860648
0.000861422
0.000862358
0.000863293
0.00086403
0.000864471
0.000864489
0.000864147
0.000863617
0.000863044
0.000859119
0.00085963
0.000860242
0.000860712
0.000860838
0.0008606
0.000860117
0.000859562
0.000859052
0.000858626
0.000858745
0.000858912
0.000859111
0.000859206
0.00085913
0.000858934
0.000858718
0.000858559
0.000858486
0.000858507
0.000858667
0.000858705
0.000858747
0.000858751
0.000858711
0.000858658
0.000858622
0.000858612
0.000858625
0.000858647
0.000858658
0.000858662
0.000858666
0.000858664
0.000858655
0.000858648
0.000858646
0.000858648
0.000858651
0.000858652
0.000858676
0.000858664
0.000858656
0.000858652
0.00085865
0.000858649
0.000858649
0.00085865
0.00085865
0.000858645
0.000858767
0.000858723
0.000858673
0.000858649
0.000858641
0.000858639
0.00085864
0.000858641
0.00085864
0.000858643
0.000859133
0.000859056
0.000858803
0.000858657
0.000858589
0.000858563
0.000858558
0.000858563
0.000858593
0.000858759
0.000860404
0.000860612
0.000859625
0.00085889
0.000858438
0.000858169
0.000858016
0.000857942
0.000857905
0.000857563
0.000862344
0.000866349
0.000865193
0.000863951
0.000863021
0.00086232
0.000861752
0.000860989
0.000857646
0.000838503
0.000859279
0.000858832
0.000858688
0.000858657
0.00085865
0.000858638
0.00085857
0.000858224
0.000856743
0.000851283
0.000858752
0.000858689
0.00085866
0.000858653
0.00085865
0.000858642
0.000858602
0.000858435
0.000857899
0.000856778
0.000858665
0.000858657
0.000858653
0.000858651
0.000858651
0.000858648
0.000858636
0.000858592
0.000858468
0.000858266
0.000858653
0.000858652
0.000858651
0.000858651
0.000858651
0.00085865
0.000858648
0.000858639
0.000858617
0.000858586
0.000858651
0.000858651
0.000858651
0.000858651
0.000858651
0.000858651
0.000858651
0.000858649
0.000858646
0.000858642
0.000858651
0.000858651
0.000858651
0.000858651
0.000858651
0.000858651
0.000858651
0.000858651
0.00085865
0.00085865
0.000858651
0.000858651
0.000858651
0.000858651
0.000858651
0.000858651
0.000858651
0.000858651
0.000858651
0.000858651
0.000858651
0.000858651
0.000858651
0.000858651
0.000858651
0.000858651
0.000858651
0.000858651
0.000858651
0.000858651
0.000858651
0.000858651
0.000858651
0.000858651
0.000858651
0.000858651
0.000858651
0.000858651
0.000858651
0.000858651
0.000858651
0.000858651
0.000858651
0.000858651
0.000858651
0.000858651
0.000858651
0.000858651
0.000858651
0.000858651
0.000858651
0.000858651
0.000858651
0.000858651
0.000858651
0.000858651
0.000858651
0.000858651
0.000858651
0.000858651
0.000858651
0.000858651
0.000858651
0.000858651
0.000858651
0.000858651
0.000858651
0.000858651
0.000858651
0.000858651
0.000858651
0.000858651
0.000858651
0.000858651
0.000858651
0.000858651
0.000858651
0.000858651
0.000858651
0.000858651
0.000858651
0.000858651
0.000858651
0.000858651
0.000858651
0.000858651
0.000858651
0.000858651
0.000858651
0.000858651
0.000858651
0.000858651
0.000858651
0.000858651
0.000858651
0.000858651
0.000858651
0.000858651
0.000858651
0.000858651
0.000858651
0.000858651
0.000858651
0.000858651
0.000858651
0.000858651
0.000858651
0.000858651
0.000858651
0.000858651
0.000858651
0.000858651
0.000858651
0.000858651
0.000858651
0.000858651
0.000858651
0.000858651
0.000858651
0.000858651
0.000858651
0.000858651
0.000858651
0.000858651
0.000858651
0.000858651
0.000858651
0.000858651
0.000858651
0.000858651
0.000858651
0.000858651
0.000858651
0.000858651
0.000858651
0.000858651
0.000858651
0.000858651
0.000858651
0.000858651
0.000858651
0.000858651
0.000858651
0.000858651
0.000858651
0.000858651
0.000858651
0.000858651
0.000858651
0.000858651
)
;

boundaryField
{
    defaultFaces
    {
        type            empty;
    }
}


// ************************************************************************* //
