/*--------------------------------*- C++ -*----------------------------------*\
  =========                 |
  \\      /  F ield         | OpenFOAM: The Open Source CFD Toolbox
   \\    /   O peration     | Website:  https://openfoam.org
    \\  /    A nd           | Version:  11
     \\/     M anipulation  |
\*---------------------------------------------------------------------------*/
FoamFile
{
    format      ascii;
    class       volScalarField;
    location    "1";
    object      k;
}
// * * * * * * * * * * * * * * * * * * * * * * * * * * * * * * * * * * * * * //

dimensions      [0 2 -2 0 0 0 0];

internalField   nonuniform List<scalar> 
700
(
0.00122181
0.00122181
0.00122181
0.00122181
0.00122181
0.00122181
0.00122181
0.00122181
0.00122181
0.00122181
0.00122181
0.00122181
0.00122181
0.00122181
0.00122181
0.00122181
0.00122181
0.00122181
0.00122181
0.00122181
0.00122181
0.00122181
0.00122181
0.00122181
0.00122181
0.00122181
0.00122181
0.00122181
0.00122181
0.00122181
0.00122181
0.00122181
0.00122181
0.00122181
0.00122181
0.00122181
0.00122181
0.00122181
0.00122181
0.00122181
0.00122181
0.00122181
0.00122181
0.00122181
0.00122181
0.00122181
0.00122181
0.00122181
0.00122181
0.00122181
0.00122181
0.00122181
0.00122181
0.00122181
0.00122181
0.00122181
0.00122181
0.00122181
0.00122181
0.00122181
0.00122181
0.00122181
0.00122181
0.00122181
0.00122181
0.00122181
0.00122181
0.00122181
0.00122181
0.00122181
0.00122181
0.00122181
0.00122181
0.00122181
0.00122181
0.00122181
0.00122181
0.00122181
0.00122181
0.00122181
0.00122185
0.00122182
0.00122181
0.00122181
0.00122181
0.00122181
0.00122181
0.00122181
0.00122181
0.00122178
0.00122499
0.00122235
0.00122186
0.00122181
0.00122181
0.00122183
0.00122189
0.001222
0.00122193
0.00122012
0.00126561
0.00123297
0.00122305
0.00122186
0.00122186
0.00122223
0.00122336
0.00122538
0.00122749
0.00123069
0.00124909
0.00123507
0.00122427
0.00122207
0.00122175
0.00122166
0.00122184
0.00122278
0.00122437
0.00122672
0.00123928
0.00123587
0.00122548
0.0012225
0.00122188
0.00122171
0.00122153
0.00122149
0.00122196
0.00122324
0.00122629
0.00123364
0.00122611
0.00122299
0.00122207
0.00122186
0.00122177
0.00122165
0.00122159
0.00122188
0.00120894
0.00122643
0.00122474
0.00122303
0.0012222
0.00122191
0.00122184
0.00122181
0.00122177
0.00122178
0.00119037
0.00121508
0.00122067
0.00122191
0.00122198
0.00122189
0.00122183
0.00122182
0.00122181
0.0012218
0.00117618
0.00120407
0.00121559
0.00121997
0.00122135
0.00122171
0.00122179
0.0012218
0.00122181
0.00122181
0.00117151
0.00119904
0.00121297
0.00121883
0.00122093
0.00122158
0.00122175
0.00122179
0.00122179
0.00122177
0.00117861
0.00120268
0.00121466
0.0012195
0.00122116
0.00122165
0.00122177
0.00122179
0.00122178
0.00122172
0.00120148
0.00121451
0.0012195
0.0012212
0.00122168
0.00122179
0.00122184
0.00122196
0.00122241
0.00122395
0.00122648
0.00122259
0.0012219
0.00122181
0.00122181
0.00122181
0.00122182
0.00122186
0.00122196
0.00122217
0.00122335
0.00122243
0.00122199
0.00122185
0.00122182
0.00122181
0.00122181
0.00122182
0.00122184
0.00122187
0.0012222
0.001222
0.00122187
0.00122183
0.00122181
0.00122181
0.00122181
0.00122181
0.00122181
0.00122182
0.00122188
0.00122185
0.00122182
0.00122181
0.00122181
0.00122181
0.00122181
0.00122181
0.00122181
0.00122181
0.00122182
0.00122181
0.00122181
0.00122181
0.00122181
0.00122181
0.00122181
0.00122181
0.00122181
0.00122181
0.00122181
0.00122181
0.00122181
0.00122181
0.00122181
0.00122181
0.00122181
0.00122181
0.00122181
0.00122181
0.00122181
0.00122181
0.00122181
0.00122181
0.00122181
0.00122181
0.00122181
0.00122181
0.00122181
0.00122181
0.00122181
0.00122181
0.00122181
0.00122181
0.00122181
0.00122181
0.00122181
0.00122181
0.00122181
0.00122181
0.00122181
0.00122181
0.00122181
0.00122181
0.00122181
0.00122181
0.00122181
0.00122181
0.00122181
0.00122181
0.00122181
0.00122181
0.00122181
0.00122181
0.00122181
0.00122181
0.00122181
0.00122181
0.00122181
0.00122181
0.00122181
0.00122181
0.00122181
0.00122181
0.00122181
0.00122181
0.00122181
0.00122181
0.00122181
0.00122181
0.00122181
0.00122181
0.00122181
0.00122181
0.00122181
0.00122181
0.00122181
0.00122181
0.00122181
0.00122181
0.00122181
0.00122181
0.00122181
0.00122181
0.00122181
0.00122181
0.00122181
0.00122181
0.00122181
0.00122181
0.00122181
0.00122181
0.00122181
0.00122181
0.00122181
0.00122181
0.00122181
0.00122181
0.00122181
0.00122181
0.00122181
0.00122181
0.00122181
0.00122181
0.00122181
0.00122181
0.00122181
0.00122181
0.00122181
0.00122181
0.00122181
0.00122181
0.00122181
0.00122181
0.00122181
0.00122181
0.00122181
0.00122181
0.00122181
0.00122181
0.00122181
0.00122181
0.00122181
0.00122181
0.00122181
0.00122181
0.00122181
0.00122181
0.00122181
0.00122181
0.00122181
0.00122181
0.00122181
0.00122181
0.00122181
0.00122181
0.00122181
0.00122181
0.00122181
0.00122181
0.00122181
0.00122181
0.00122181
0.00122181
0.00122181
0.00122181
0.00122181
0.00122181
0.00122181
0.00122181
0.00122181
0.00122181
0.00122181
0.00122181
0.00122181
0.00122181
0.00122181
0.00122181
0.00122181
0.00122181
0.0012235
0.00122421
0.0012251
0.00122599
0.0012267
0.00122714
0.00122718
0.00122688
0.00122638
0.00122582
0.00122213
0.00122253
0.00122305
0.00122347
0.0012236
0.00122342
0.00122301
0.00122253
0.00122209
0.00122172
0.00122187
0.00122198
0.00122213
0.0012222
0.00122215
0.00122201
0.00122185
0.00122174
0.00122168
0.0012217
0.00122182
0.00122185
0.00122187
0.00122188
0.00122185
0.00122181
0.00122179
0.00122178
0.00122179
0.0012218
0.00122182
0.00122182
0.00122182
0.00122182
0.00122181
0.0012218
0.0012218
0.0012218
0.00122181
0.00122181
0.00122186
0.00122183
0.00122182
0.00122181
0.0012218
0.0012218
0.0012218
0.0012218
0.0012218
0.0012218
0.00122202
0.00122196
0.00122186
0.00122181
0.00122179
0.00122178
0.00122179
0.00122179
0.00122179
0.0012218
0.00122264
0.00122258
0.00122213
0.00122185
0.00122172
0.00122166
0.00122165
0.00122166
0.00122171
0.00122198
0.00122462
0.00122519
0.00122363
0.00122241
0.00122163
0.00122116
0.00122088
0.00122074
0.0012206
0.00121984
0.00122755
0.00123395
0.00123225
0.0012303
0.00122882
0.0012277
0.00122678
0.00122546
0.00121974
0.00119048
0.00122227
0.00122193
0.00122184
0.00122181
0.0012218
0.00122178
0.00122166
0.00122108
0.0012188
0.00121084
0.00122188
0.00122184
0.00122182
0.00122181
0.0012218
0.00122179
0.00122171
0.0012214
0.0012205
0.00121875
0.00122182
0.00122181
0.00122181
0.00122181
0.00122181
0.0012218
0.00122177
0.00122168
0.00122145
0.00122111
0.00122181
0.00122181
0.00122181
0.00122181
0.00122181
0.0012218
0.0012218
0.00122178
0.00122174
0.00122168
0.00122181
0.00122181
0.00122181
0.00122181
0.00122181
0.00122181
0.00122181
0.0012218
0.00122179
0.00122179
0.00122181
0.00122181
0.00122181
0.00122181
0.00122181
0.00122181
0.00122181
0.00122181
0.00122181
0.0012218
0.00122181
0.00122181
0.00122181
0.00122181
0.00122181
0.00122181
0.00122181
0.00122181
0.00122181
0.00122181
0.00122181
0.00122181
0.00122181
0.00122181
0.00122181
0.00122181
0.00122181
0.00122181
0.00122181
0.00122181
0.00122181
0.00122181
0.00122181
0.00122181
0.00122181
0.00122181
0.00122181
0.00122181
0.00122181
0.00122181
0.00122181
0.00122181
0.00122181
0.00122181
0.00122181
0.00122181
0.00122181
0.00122181
0.00122181
0.00122181
0.00122181
0.00122181
0.00122181
0.00122181
0.00122181
0.00122181
0.00122181
0.00122181
0.00122181
0.00122181
0.00122181
0.00122181
0.00122181
0.00122181
0.00122181
0.00122181
0.00122181
0.00122181
0.00122181
0.00122181
0.00122181
0.00122181
0.00122181
0.00122181
0.00122181
0.00122181
0.00122181
0.00122181
0.00122181
0.00122181
0.00122181
0.00122181
0.00122181
0.00122181
0.00122181
0.00122181
0.00122181
0.00122181
0.00122181
0.00122181
0.00122181
0.00122181
0.00122181
0.00122181
0.00122181
0.00122181
0.00122181
0.00122181
0.00122181
0.00122181
0.00122181
0.00122181
0.00122181
0.00122181
0.00122181
0.00122181
0.00122181
0.00122181
0.00122181
0.00122181
0.00122181
0.00122181
0.00122181
0.00122181
0.00122181
0.00122181
0.00122181
0.00122181
0.00122181
0.00122181
0.00122181
0.00122181
0.00122181
0.00122181
0.00122181
0.00122181
0.00122181
0.00122181
0.00122181
0.00122181
0.00122181
0.00122181
0.00122181
0.00122181
0.00122181
0.00122181
0.00122181
0.00122181
0.00122181
0.00122181
0.00122181
0.00122181
0.00122181
0.00122181
0.00122181
0.00122181
0.00122181
0.00122181
0.00122181
0.00122181
)
;

boundaryField
{
    defaultFaces
    {
        type            empty;
    }
}


// ************************************************************************* //
