/*--------------------------------*- C++ -*----------------------------------*\
  =========                 |
  \\      /  F ield         | OpenFOAM: The Open Source CFD Toolbox
   \\    /   O peration     | Website:  https://openfoam.org
    \\  /    A nd           | Version:  11
     \\/     M anipulation  |
\*---------------------------------------------------------------------------*/
FoamFile
{
    format      ascii;
    class       volScalarField;
    location    "1";
    object      nut;
}
// * * * * * * * * * * * * * * * * * * * * * * * * * * * * * * * * * * * * * //

dimensions      [0 2 -1 0 0 0 0];

internalField   nonuniform List<scalar> 
700
(
0.00015647
0.00015647
0.00015647
0.00015647
0.00015647
0.00015647
0.00015647
0.00015647
0.00015647
0.00015647
0.00015647
0.00015647
0.00015647
0.00015647
0.00015647
0.00015647
0.00015647
0.00015647
0.00015647
0.00015647
0.00015647
0.00015647
0.00015647
0.00015647
0.00015647
0.00015647
0.00015647
0.00015647
0.00015647
0.00015647
0.00015647
0.00015647
0.00015647
0.00015647
0.00015647
0.00015647
0.00015647
0.00015647
0.00015647
0.00015647
0.00015647
0.00015647
0.00015647
0.00015647
0.00015647
0.00015647
0.00015647
0.00015647
0.00015647
0.00015647
0.00015647
0.00015647
0.00015647
0.00015647
0.00015647
0.00015647
0.00015647
0.00015647
0.00015647
0.00015647
0.00015647
0.00015647
0.00015647
0.00015647
0.00015647
0.00015647
0.00015647
0.00015647
0.00015647
0.00015647
0.00015647
0.00015647
0.00015647
0.00015647
0.00015647
0.00015647
0.00015647
0.00015647
0.00015647
0.00015647
0.000156477
0.000156471
0.00015647
0.00015647
0.00015647
0.00015647
0.00015647
0.00015647
0.00015647
0.000156466
0.000156938
0.000156556
0.000156478
0.00015647
0.00015647
0.000156473
0.000156482
0.000156498
0.000156485
0.000156228
0.000162692
0.000158127
0.000156669
0.000156479
0.000156479
0.000156533
0.000156684
0.00015692
0.000157134
0.000157478
0.0001604
0.000158414
0.000156857
0.000156516
0.000156462
0.000156452
0.000156488
0.000156622
0.000156809
0.000157058
0.000158977
0.000158489
0.000157036
0.000156584
0.000156483
0.000156454
0.000156431
0.000156437
0.000156511
0.000156665
0.000157122
0.000158121
0.000157115
0.000156661
0.000156515
0.000156478
0.000156463
0.000156446
0.000156442
0.000156484
0.000154675
0.000157044
0.000156885
0.000156658
0.000156535
0.000156489
0.000156475
0.00015647
0.000156464
0.000156466
0.000152077
0.000155401
0.000156253
0.000156472
0.000156495
0.000156483
0.000156475
0.000156472
0.00015647
0.000156469
0.000150105
0.000153833
0.000155489
0.000156163
0.00015639
0.000156453
0.000156467
0.00015647
0.00015647
0.00015647
0.000149459
0.000153127
0.0001551
0.000155983
0.00015632
0.000156429
0.00015646
0.000156468
0.00015647
0.000156471
0.000150451
0.000153661
0.00015536
0.000156093
0.000156359
0.000156441
0.000156464
0.00015647
0.000156471
0.000156463
0.00015363
0.000155377
0.000156101
0.000156368
0.000156447
0.000156466
0.00015647
0.000156469
0.000156474
0.00015655
0.000157042
0.000156555
0.000156475
0.000156469
0.00015647
0.00015647
0.000156471
0.000156471
0.00015647
0.000156473
0.000156683
0.000156559
0.000156498
0.000156477
0.000156472
0.00015647
0.00015647
0.000156471
0.000156471
0.00015647
0.000156529
0.000156501
0.000156481
0.000156473
0.000156471
0.00015647
0.00015647
0.00015647
0.00015647
0.00015647
0.000156483
0.000156477
0.000156473
0.000156471
0.00015647
0.00015647
0.00015647
0.00015647
0.00015647
0.00015647
0.000156472
0.000156471
0.00015647
0.00015647
0.00015647
0.00015647
0.00015647
0.00015647
0.00015647
0.00015647
0.00015647
0.00015647
0.00015647
0.00015647
0.00015647
0.00015647
0.00015647
0.00015647
0.00015647
0.00015647
0.00015647
0.00015647
0.00015647
0.00015647
0.00015647
0.00015647
0.00015647
0.00015647
0.00015647
0.00015647
0.00015647
0.00015647
0.00015647
0.00015647
0.00015647
0.00015647
0.00015647
0.00015647
0.00015647
0.00015647
0.00015647
0.00015647
0.00015647
0.00015647
0.00015647
0.00015647
0.00015647
0.00015647
0.00015647
0.00015647
0.00015647
0.00015647
0.00015647
0.00015647
0.00015647
0.00015647
0.00015647
0.00015647
0.00015647
0.00015647
0.00015647
0.00015647
0.00015647
0.00015647
0.00015647
0.00015647
0.00015647
0.00015647
0.00015647
0.00015647
0.00015647
0.00015647
0.00015647
0.00015647
0.00015647
0.00015647
0.00015647
0.00015647
0.00015647
0.00015647
0.00015647
0.00015647
0.00015647
0.00015647
0.00015647
0.00015647
0.00015647
0.00015647
0.00015647
0.00015647
0.00015647
0.00015647
0.00015647
0.00015647
0.00015647
0.00015647
0.00015647
0.00015647
0.00015647
0.00015647
0.00015647
0.00015647
0.00015647
0.00015647
0.00015647
0.00015647
0.00015647
0.00015647
0.00015647
0.00015647
0.00015647
0.00015647
0.00015647
0.00015647
0.00015647
0.00015647
0.00015647
0.00015647
0.00015647
0.00015647
0.00015647
0.00015647
0.00015647
0.00015647
0.00015647
0.00015647
0.00015647
0.00015647
0.00015647
0.00015647
0.00015647
0.00015647
0.00015647
0.00015647
0.00015647
0.00015647
0.00015647
0.00015647
0.00015647
0.00015647
0.00015647
0.00015647
0.00015647
0.00015647
0.00015647
0.00015647
0.00015647
0.00015647
0.00015647
0.00015647
0.00015647
0.00015647
0.00015647
0.00015647
0.00015647
0.00015647
0.00015647
0.00015647
0.00015647
0.00015647
0.000156541
0.000156582
0.000156637
0.000156696
0.000156744
0.000156775
0.000156783
0.000156768
0.000156736
0.000156697
0.000156467
0.000156478
0.000156498
0.000156519
0.000156531
0.000156527
0.000156511
0.00015649
0.000156469
0.000156453
0.000156469
0.000156468
0.000156468
0.00015647
0.000156471
0.000156471
0.00015647
0.000156468
0.000156468
0.00015647
0.000156471
0.000156471
0.00015647
0.00015647
0.00015647
0.000156471
0.000156471
0.000156471
0.00015647
0.00015647
0.000156472
0.000156471
0.000156471
0.00015647
0.00015647
0.00015647
0.00015647
0.00015647
0.00015647
0.00015647
0.000156478
0.000156475
0.000156472
0.00015647
0.00015647
0.000156469
0.000156469
0.00015647
0.000156469
0.000156468
0.000156504
0.000156495
0.000156479
0.000156471
0.000156467
0.000156466
0.000156466
0.000156467
0.000156467
0.00015647
0.000156595
0.000156593
0.000156525
0.000156481
0.000156459
0.00015645
0.000156446
0.000156447
0.000156456
0.000156496
0.000156871
0.000156979
0.00015676
0.00015658
0.000156464
0.000156392
0.000156349
0.000156325
0.000156296
0.000156164
0.000157267
0.000158177
0.000157952
0.000157678
0.00015747
0.000157312
0.00015718
0.000156979
0.000156124
0.000152119
0.000156475
0.000156469
0.000156471
0.00015647
0.000156469
0.000156466
0.000156446
0.000156361
0.000156047
0.000155005
0.00015647
0.00015647
0.000156471
0.00015647
0.000156469
0.000156466
0.000156453
0.000156405
0.000156272
0.000156029
0.00015647
0.00015647
0.00015647
0.00015647
0.00015647
0.000156469
0.000156464
0.000156449
0.000156413
0.000156362
0.00015647
0.00015647
0.00015647
0.00015647
0.00015647
0.00015647
0.000156468
0.000156465
0.000156458
0.000156448
0.00015647
0.00015647
0.00015647
0.00015647
0.00015647
0.00015647
0.00015647
0.000156469
0.000156468
0.000156466
0.00015647
0.00015647
0.00015647
0.00015647
0.00015647
0.00015647
0.00015647
0.00015647
0.00015647
0.000156469
0.00015647
0.00015647
0.00015647
0.00015647
0.00015647
0.00015647
0.00015647
0.00015647
0.00015647
0.00015647
0.00015647
0.00015647
0.00015647
0.00015647
0.00015647
0.00015647
0.00015647
0.00015647
0.00015647
0.00015647
0.00015647
0.00015647
0.00015647
0.00015647
0.00015647
0.00015647
0.00015647
0.00015647
0.00015647
0.00015647
0.00015647
0.00015647
0.00015647
0.00015647
0.00015647
0.00015647
0.00015647
0.00015647
0.00015647
0.00015647
0.00015647
0.00015647
0.00015647
0.00015647
0.00015647
0.00015647
0.00015647
0.00015647
0.00015647
0.00015647
0.00015647
0.00015647
0.00015647
0.00015647
0.00015647
0.00015647
0.00015647
0.00015647
0.00015647
0.00015647
0.00015647
0.00015647
0.00015647
0.00015647
0.00015647
0.00015647
0.00015647
0.00015647
0.00015647
0.00015647
0.00015647
0.00015647
0.00015647
0.00015647
0.00015647
0.00015647
0.00015647
0.00015647
0.00015647
0.00015647
0.00015647
0.00015647
0.00015647
0.00015647
0.00015647
0.00015647
0.00015647
0.00015647
0.00015647
0.00015647
0.00015647
0.00015647
0.00015647
0.00015647
0.00015647
0.00015647
0.00015647
0.00015647
0.00015647
0.00015647
0.00015647
0.00015647
0.00015647
0.00015647
0.00015647
0.00015647
0.00015647
0.00015647
0.00015647
0.00015647
0.00015647
0.00015647
0.00015647
0.00015647
0.00015647
0.00015647
0.00015647
0.00015647
0.00015647
0.00015647
0.00015647
0.00015647
0.00015647
0.00015647
0.00015647
0.00015647
0.00015647
0.00015647
0.00015647
0.00015647
0.00015647
0.00015647
0.00015647
0.00015647
0.00015647
0.00015647
0.00015647
0.00015647
0.00015647
0.00015647
)
;

boundaryField
{
    defaultFaces
    {
        type            empty;
    }
}


// ************************************************************************* //
