/*--------------------------------*- C++ -*----------------------------------*\
  =========                 |
  \\      /  F ield         | OpenFOAM: The Open Source CFD Toolbox
   \\    /   O peration     | Website:  https://openfoam.org
    \\  /    A nd           | Version:  11
     \\/     M anipulation  |
\*---------------------------------------------------------------------------*/
FoamFile
{
    format      ascii;
    class       volScalarField;
    location    "1.6";
    object      gradTy;
}
// * * * * * * * * * * * * * * * * * * * * * * * * * * * * * * * * * * * * * //

dimensions      [0 -1 0 1 0 0 0];

internalField   nonuniform List<scalar> 
5712
(
12130.6
6997.01
19626.6
12892.6
21443.4
15897.7
33575.5
41759.1
44191.2
54220.6
28619
24908.4
18168.6
14432.3
9135
6183.75
20236.5
20567
17490.6
20474.9
27336.3
24256.8
31679.3
25487.6
8522.84
6095.12
4803.55
3577.85
10159.3
8253.11
6194.86
5030.4
18705.6
19308.6
19000.9
15855.7
14657.4
11568.7
11593.8
13200.9
18662.5
18611
39344.2
40717
27736.4
28623.4
16001.2
13493.7
17332.2
12337.3
8062.47
8306.54
6690.42
9591.41
3506.95
4291.74
9154.72
12808.7
5473.33
6455.28
10081.6
17314.7
7013.24
11630
2663.85
6891.64
2217.14
5131.78
18066.7
22367.8
18761.5
22346.3
22055.3
22225.2
22581.4
22015.9
16044.1
21804.4
16387.6
21489.2
18533.8
22235.2
18557.6
22207.6
22840.1
21780.3
22800.5
21597.5
14860.2
21920.9
14366.4
22014.3
18358.4
21766.8
23177
32654.1
19457.6
25256.4
22983.6
35619.8
17400.2
19104.6
23256.7
31318.8
17218.1
17853.2
23505.3
31051.2
5714.95
7546.71
14636
25830.7
7038.2
8062.43
18736
29192.6
8685.9
8794.69
23597.7
32290.5
24953
26491.8
21398.1
20945.1
30957.2
26588.6
25338.5
21792
19099.7
35573.7
24271.9
24165.2
21775.2
22019.6
40375.2
2176.14
2624.04
4710.77
10976.3
3073.79
3511.1
6439.96
12174.7
4539.67
3854.91
8679.61
13792.3
26141.7
25512.2
23760.3
23066.3
20674.4
18641.6
15789.3
13831.4
11335
16011.4
23893.7
22820.3
24289.4
23660.8
21342.5
19820.7
17893.3
15945.1
12040.5
16054.4
24187.3
27160
24158.5
27891.6
23202.3
23909.8
22696.2
24156.1
22203.7
22554.5
22009.9
21873.9
23987
28033.6
23896.8
28029.9
22059.2
24493.5
21896.5
24459.2
22290.5
22503.5
22296.9
22500.1
18840
17899
12198.6
13632
18725.8
17448.9
12029.2
13748.4
19089.9
17831.7
12456.6
13657.6
19167.3
17648.3
12841.7
13654.2
1738.12
1143.54
777.522
988.565
656.097
608.085
2430.32
1395.66
1033.93
1931.81
1518.94
1284.3
2769.02
2210.22
2177.73
3379.23
2700.28
2392.98
23939.2
21163.9
19289.2
22196.5
20175.8
18644
16027.5
14577.7
13774
11047.2
9331.97
8591.04
5169.13
3697.04
3080.79
21754
19691.7
18046
22545
20077
18247.4
16861.2
14110.3
12571.3
11104
8623.32
7603.73
5484.23
3667.6
2890.17
27589
26882.7
30148.7
26943.9
31044.2
26946.1
37616.7
28478.1
21280.8
21483.4
21052.3
19458.9
23888.5
22381.8
23516.1
20015.3
23287.7
23032.2
21419.5
22813.8
28351.3
25578
28451.7
28932.7
31007.7
32120.8
23652.9
24583.6
21167.1
20567.9
25671
26372.2
16562.3
8977.3
15534.1
9930.12
16820.2
9059.71
15509
9872.75
16598.1
9104.03
15477.4
10286.8
15080.7
10760.6
15277.7
10671.2
21391.3
18180.5
21356.6
18208.4
23689.5
21307.4
24024.2
21158
20863.1
15141.7
21673.8
14898.7
21890.4
18154.4
22197
17960.4
24710.6
21023.3
24761.2
20770.8
20715.8
15212
20682
15124.6
13650.8
9142.85
11968.1
7780.73
12676.3
8193.3
11473.6
7275.97
14015.3
9711.85
12177.7
8017.85
14047.5
10053.9
12151.9
8076.28
2609.43
1370.4
4824.22
2662.95
2781.26
1673
5136.49
3166.24
3413.58
2510.48
5679.41
4106.03
13089.3
20355.8
9441.08
9067.75
6547.4
19863.6
13766.6
8059.77
8113.11
5406.11
20755.2
16269.1
12898.3
10043.1
6390.63
739.548
548.763
1582.45
1188.18
1031.37
704.63
2175.29
1735.95
1769.63
1339.62
3100.88
2523.61
20043.9
19166.8
13499.3
12748.9
8737.22
8644.78
7357.36
6612.58
4624.91
3777.8
18875.2
16967.1
14545.4
12580.6
11273.6
9827.24
8577.81
7576.95
5629.34
5427.55
14981.7
11931.7
15115
11697.2
18125
14890
18139.2
14754.6
12580.2
10018.6
12178.3
10013.6
15146.1
11546.9
15061.4
11536.8
18099.2
15075.4
17939.1
15044.9
12824.7
9886.53
12806.5
10018.5
9785.96
8111.5
6610.51
6772.29
9412.81
7908.25
6310.29
6402.42
10208.6
8281.57
6781.38
7160.54
10446.7
8280.76
7041.61
7262.76
1586.87
1384.16
1140.76
6781.98
3624.31
2953.97
1549.84
1513.84
1337.42
7405.32
4312.22
3641.76
2145.39
2379.79
2424.58
8264.37
5440.24
4820.77
17704.3
16215.6
15200.7
11973.5
11362
10996.3
8636.06
8347.53
8247.38
7299.07
6926.66
6689.78
9496.75
6763.37
6069.36
15163.7
13647.1
12659.9
11144.1
10112.3
9536.92
9141.74
8277.38
7805.95
8652.13
7523.86
6886.04
11600.8
7647.61
6804.09
4975.56
3080.69
2079.99
1578.19
5583.87
3337.69
2191.15
1618.38
5003.24
3080.09
2085.46
1588.74
5704.98
3407.14
2239.33
1644.73
4996.36
3053.36
2102.17
1596.65
5823.28
3453.06
2302.25
1666.09
6261.06
3651.01
2336.87
1705.53
6443.55
3788.94
2401.61
1759.56
5322.24
3249.03
2191.45
1625.08
4399.54
2872.49
2020.16
1558.11
4689.01
2953.45
2054.04
1527.32
4064.34
2713.14
1942.47
1500.32
5748.38
3472.78
2285.55
1686.99
4601.54
2989.14
2069.03
1602.6
5988.84
3625.5
2355.08
1737.03
4691.97
3073.19
2112.66
1633.99
3786.2
2658.35
1904.36
1500.97
2519.79
2157.29
1690.75
1411.53
3800.92
2648.49
1903.68
1498.82
2628.74
2187.39
1701.48
1419.46
3897.11
2651.52
1920.47
1511.9
2953.65
2283.55
1740.49
1453.37
3863.24
2595.32
1893.39
1544.31
3236.2
2352.77
1793.02
1452.15
3617.9
2528.04
1855.27
1478.94
1272.35
1754.53
1359.41
413.457
-88.3925
1533.24
1228.57
430.277
1500.13
1830.56
1390.82
435.79
185.453
1617.16
1255.3
439.432
1931
1965.88
1436.34
434.522
655.694
1759.84
1293.52
444.366
2464.62
2129.01
1507.9
471.3
1167.65
1920.45
1350.39
463.402
2829.62
2281.19
1597.41
545.872
1333.47
2046
1403.79
480.175
3028.2
2453.04
1636.4
521.81
1099.18
2188.45
1504.63
510.156
2949.64
2377.13
1607.22
521.537
1047.54
2122.63
1453.28
492.443
3059.13
2506.76
1655.36
488.373
1059.61
2244.22
1537.08
513.179
3122.83
2562.06
1696.99
498.001
1160.91
2302.56
1576.58
525.252
1308.17
935.151
608.779
339.372
108.661
1295.12
933.434
609.299
339.861
108.825
1324.77
943.344
612.586
341.072
109.149
1316.83
943.916
614.367
342.173
109.493
1358
954.963
617.499
343.212
109.759
1344.69
956.251
620.284
344.88
110.278
1363.34
970.122
628.025
348.63
111.385
1395.27
989.857
638.954
353.945
112.96
1391.42
968.844
624.502
346.49
110.717
1483.37
985.528
629.153
348.164
111.166
1398.08
965.198
621.148
344.693
110.172
1481.24
979.454
625.437
346.335
110.623
1403.75
981.023
631.431
349.868
111.716
1510.69
997.324
635.435
351.199
112.064
1436.41
1000.22
641.703
354.815
113.178
1545.3
1014.45
644.316
355.459
113.322
1342.94
939.778
608.711
338.976
108.517
1409.88
945.07
608.837
338.75
108.43
1358.71
946.267
611.567
340.225
108.872
1422.53
949.989
611.028
339.711
108.703
1391.24
957.129
616.049
342.172
109.426
1450.45
958.962
614.919
341.432
109.195
1442.69
969.449
620.557
344.072
109.964
1483.91
968.598
619.328
343.423
109.768
1491.11
975.774
623.09
345.184
110.281
10870.8
16806.7
11328.8
17039.7
11981.6
17308.2
12362.8
17401.3
11735.6
16572.3
10707.2
12091.8
10774.5
12777.1
10737.2
11935.9
10910.9
12057.7
9674.35
1659.86
355.528
79.9454
14.1859
10774.8
3071.61
747.304
169.944
30.1421
9731.73
1640.69
349.054
78.2184
13.8449
10818.9
3047.25
738.911
167.294
29.4248
9747.51
1622.21
342.469
76.4538
13.5088
10810.5
3015.47
727.785
164.254
28.8571
9567.9
1559.27
326.473
72.7429
12.8499
10591.5
2929.31
704.88
158.902
27.8983
8981.36
1426.86
298.268
66.6974
11.8133
9943.6
2756.38
665.736
150.567
26.4824
7855.93
1297.92
280.304
63.7465
11.3836
8047.29
2343.91
581.713
133.857
23.7839
8196.75
1332.64
284.397
64.2591
11.4357
8606.67
2502.16
615.338
140.422
24.8111
7713.59
1286.54
279.097
63.6223
11.3731
7842.07
2269.43
563.657
130.119
23.1877
7668.34
1273.63
276.028
62.9409
11.2413
7829.61
2248.64
556.917
128.846
22.9235
34538.4
49190
48019.1
33471.5
19600.5
20651.3
28921.5
30272.2
22725.7
25528.2
36228.5
49576.5
45853
60881.9
29898.7
34140.8
23409.4
25050.8
12689.3
13929.5
4847.91
3145.46
715.878
529.43
599.658
517.599
650.271
4656.59
4505.68
2676.41
3721.4
3506.63
1481.14
2095.67
1862.5
1198.9
1392.25
1122.51
4219.58
2189.32
1325.18
1164.18
1524.48
1309
1000.55
930.776
855.254
741.942
1045.93
937.727
4457.48
2635.39
3042.9
1874.02
1508.77
2187.09
1018.79
769.711
1129.8
9737.3
9598.91
9558.8
10459.1
16697.1
6881.61
7722.5
8259.24
9084.15
10426
1872.59
2652.44
3231.5
3618.33
3816.09
1397.57
2005.8
2469.39
2780.99
2938.17
1581.1
2264.1
2779.58
3121.86
3292.61
1368.3
1967.48
2425.04
2731.8
2885.69
1709.3
2437.09
2982.25
3344.28
3526.03
9677.77
9764.7
9425.57
9757.23
14837.9
9343.99
9263.95
8783.91
8803.71
9898.01
6082.92
7073.15
7487.5
7866.58
8396.49
7947.01
8183.88
7819.95
7633.76
7746.8
7487.83
7788.13
7431.33
7140.55
7079.44
3660.93
4774.02
5434.72
5833.16
6051.71
4932.58
6002.95
6497.98
6790.42
7007.69
4446.05
5508.51
6008.43
6250.64
6372.99
3033.9
4088.04
4766.17
5176.59
5381.01
3459.18
4538.44
5175.4
5536.55
5712.22
2859.87
3888.85
4562.18
4967.46
5163.16
8938.21
9322.76
9263.56
9838.49
15141.6
5147.62
6299.21
6942.68
7484.04
8063.14
3326.34
4436.95
5148.97
5603.85
5858.53
2956.89
4014.3
4729.1
5198.25
5457.29
3763.27
4916.97
5647.59
6156.97
6503.78
3293.88
4420.01
5177.82
5700.51
6016.78
2570.7
3552.02
4251.24
4724.78
4983.81
2407.09
3352.23
4026.56
4470.22
4700.07
2224.51
3119.79
3759.01
4167.58
4368.68
1941.73
2749.33
3341.96
3728.79
3921.12
2682.06
3685.55
4370.03
4802.25
5020.95
2423.23
3369.17
4037.09
4469.46
4689.83
9176.79
9324.36
9339.39
10151.8
16001.5
5955.32
6974.11
7617.39
8379.48
9411.65
6986.37
8024.9
8441.89
9179.98
10988
4517.23
5744.06
6541.33
7205.43
7775.85
3741.57
4929.44
5719.65
6302.14
6701.76
5150.1
6335.02
7040.31
7673.77
8353.34
2616.28
3610.24
4311.96
4781.18
5034.76
2009.07
2835.1
3439.89
3838.01
4039.21
2877.9
3925.3
4645.85
5126.69
5393.92
19157.9
12751
19712.6
14116
25469.2
36615
26662.8
36471.6
20231.2
21336.1
17394.9
20662.7
22866.4
21652.5
29288.1
23868.6
14848.5
13997.2
7275.03
6255.68
16159.2
14871.1
8343.84
6850.44
20022
21594.7
20445.2
18588.1
20932.3
13777.8
11441.9
13186
18652.4
18607.5
38920.8
40650.3
27059.2
28448.4
16682
13644.4
18132.1
12486.8
8807.73
8489.79
14835.8
16494.8
6198.08
6789.48
16286.3
18685.8
7714.44
8553.73
15468.5
21780.6
8970.06
13914.8
3121.97
7681.41
2309.9
5286.34
18758
21389.6
18706.6
21783.1
20308.3
20541.2
21457.5
21084.5
17197.8
21735.6
19529
21434.4
18396
21935.7
18498.2
22110.5
22269.9
21309.2
22634.6
21452.4
15222.5
21859.6
14431.1
21986.9
19359.3
23076.3
23472.2
32981.8
21121.4
27408.6
23579.6
36268.6
17862.1
19743.5
23377.3
31468.8
17338.7
18032
23531.3
31091.6
20371.2
21981.6
25705.9
38266.9
20442.4
20879.8
27485.2
38726
20061.6
19672.8
29522.8
38326.7
18949.3
19658.3
20459.4
22011
33506.9
18859.8
17766.5
21800.6
20061.7
38395.8
19677.7
20705
20749.3
22784.1
41406.7
11952.2
10869.5
11246.8
14687
13091.8
11926.8
11641.9
15070
14428.5
12428.6
12158.6
15367.6
18193.6
17345.7
17220.6
16623
20134.6
18670.9
16750.7
14992.1
12714
16005.3
19255.9
18881
20586.5
20588.6
19951.6
18674.5
18289.7
16184.2
12501.3
15443.2
22447
25194.7
23300.1
26849.5
21036.6
21851.2
21672.7
23152.4
21769.4
21969.1
21247
20932.6
23573.6
27537.1
23772.2
27883.6
21586.7
24012.8
21757.3
24319.8
22057.8
22207.9
22223.5
22412.7
18768.3
17685.8
12269.6
13555.9
18724
17221.5
12260.8
13657.4
19026.4
17705
12471.4
13608.6
19142.3
17607
12841.7
13635.9
9904.56
10060.3
4301.72
3946.04
11047.5
10667.5
4818.01
4596.71
10748.1
10019.2
5472.84
5265.39
16934.5
16305.7
16705.9
16680.3
16838.8
16218.4
12797.6
11364.7
6470.75
5300.26
18986.1
18069.7
20537.5
19587.9
16495.5
15155.7
11976.7
10182.1
5936.14
4402.58
22585
21367.6
27893.1
24224.8
25297.2
22430.2
34894
26143.4
20602
16901.1
22545.7
17804
20460.6
17182.6
22640.4
18045.1
21144.1
18624.6
19044.4
17604.9
21471.2
22894
27102.7
28526.5
29903.1
31806.4
22329.5
24123.4
20097.5
20263.6
24140.1
25858.6
13737.2
10156.5
14224.5
10395.6
14021.1
10073
14428.4
10254.7
13917.4
9926.03
14372.8
10460.4
14434.7
10781.2
15064.5
10670.4
17506.2
16895.2
19436.2
17416.3
20171.5
19252.6
22173.3
20024.3
19034.6
14840.1
17993.3
14612.7
20943.7
17734.7
21916.9
17833.5
23821.2
20456.3
24505.8
20600.5
19808.7
15022.3
20416.3
15065.5
13236.9
9540.15
12159.6
8153.56
12608.5
9233.67
12058.2
8067.7
13697.6
9853.73
12233.7
8190.83
13936.7
10086.7
12165.5
8132.03
13145
13164.3
9528.55
8784.7
13276.1
13276.9
9385.68
8713.42
13215.4
12763.1
9157.82
8618.44
15389.8
18261.6
16125.6
11974.9
8888.19
16908.4
15730.2
17472.1
11956.2
8584.61
18659.9
16414
14474.2
12117
7986
13507.4
14326.6
8648.97
9161.28
13393.2
13987.8
8581.39
9051.26
12534.8
12762.7
8240.41
8270.6
16636.4
15614.2
14914
14174
15364.2
15551.2
11934.9
12455.9
8019.82
7766.25
16846.2
15275.3
15037.2
13527.5
13420
12587.6
11326.9
11074
7429.52
7703.76
14739.9
12368.3
14837
11839
16848.5
14127.1
17402.7
14347.2
12746.6
10567.6
12810.2
11287.1
14966.2
11601.1
15004.9
11550.1
17731.1
14872
17829.6
14986.5
12843.1
10116.8
12799
10075.3
10269.3
8873.94
7093.17
7481.12
10531.7
9521.73
7268.48
7834.21
10398
8614.13
7004.67
7532.88
10499.5
8376.04
7116.17
7378.45
16657.2
16545.1
22038.6
18705.5
16060.1
16037.6
21152.5
17896.7
14150.4
14625.2
19444.2
16641.8
14977.7
14358.7
13596.6
13282.2
15502.8
15769.3
14027.3
13863
17845.9
15191.7
14081
13271
12648.7
12338.7
12659.6
12837.5
13275.8
12869.2
17311.1
13858.4
6405.8
4012.28
2621.45
1920.17
6635.42
4132.68
2688.62
1938.41
6299.55
3945.04
2580.4
1899.95
6581.41
4093.85
2669.72
1923.34
6106.77
3814.4
2537.77
1870.22
6503.7
4005.8
2662.93
1902.2
6655.18
3997.63
2577.83
1869.87
6574.88
3909.28
2483.16
1816.66
5901.06
3687.72
2486.79
1830.79
4795.75
3188.95
2232.12
1713.44
5607.62
3579.56
2440.57
1780.95
4713.8
3199.61
2227.31
1688.39
6065.89
3734.16
2470.22
1818.49
4815.01
3168
2201.06
1707.07
6087.06
3712.86
2418.34
1782.88
4759.21
3131.45
2157.6
1669.82
5931.08
3786.04
2504.65
1868.83
5156.75
3453.87
2349.43
1804.53
5790.34
3716.34
2467.17
1842.07
5060.74
3414.04
2327.51
1794.8
5594.03
3603.7
2427.88
1823.51
4990.6
3361.71
2302.89
1790.71
5171.3
3396.27
2330.01
1817.93
4826.91
3274.65
2272.39
1728.13
4582.87
3186.9
2210.22
1692.25
4036.64
3115.79
1976.02
563.221
2326.07
2901.4
1858.43
607.962
4066.16
3113.48
1978.42
582.729
2462.35
2902.94
1856.4
610.447
4121.99
3093.37
1956.96
558.251
2651.87
2889.06
1832.61
597.031
4075.72
3044.77
1965.12
586.208
2658.69
2845.78
1815.51
597.576
3821.98
2948.63
1967.81
656.28
2191.06
2744.81
1783.24
594.166
3337.11
2736.44
1853.57
599.109
1278.21
2491.41
1705.03
577.663
3511.08
2827.19
1904.92
616.827
1453.35
2600.94
1738.42
582.384
3213.8
2662.53
1786.34
536.566
1130.3
2408.95
1653.99
554.019
3167.87
2611.72
1740.18
514.228
1176.67
2354.03
1614.32
538.642
1547.88
1072.73
682.192
374.52
119.017
1514.3
1063.94
679.784
373.744
118.82
1546.69
1068.81
679.469
373.093
118.584
1510.03
1057.84
675.845
371.731
118.213
1560.28
1065.69
676.255
371.32
118.041
1507.78
1050.67
671.136
369.325
117.49
1475.22
1035.6
663.448
365.692
116.423
1436.37
1014.52
652.37
360.422
114.873
1540.66
1054.2
669.968
368.278
117.14
1624.6
1061.48
669.097
367.247
116.789
1587.66
1066.63
674.565
370.205
117.687
1663.34
1070.78
673.091
369.048
117.31
1502.23
1039.53
662.835
364.958
116.169
1602.16
1048.74
662.686
364.257
115.915
1470.49
1020.47
652.635
360.08
114.733
1576.7
1032.34
653.848
360.036
114.673
1614.72
1085.7
685.075
375.327
119.21
1724.64
1097.45
687.102
375.844
119.33
1617.98
1083.33
683.188
374.313
118.9
1725.68
1095.31
685.611
375.062
119.092
1632.08
1080.27
680.182
372.691
118.406
1731.39
1091.18
682.739
373.594
118.65
1668.04
1079.39
677.488
371.146
117.93
1740.03
1084.91
679.13
371.818
118.119
1706.05
1077.05
675.584
370.16
117.631
12575.9
16621.2
12630
16616.1
12745.3
16586.8
12497.2
16346.4
11629.6
15490.2
10679.5
11979.1
10753.7
12527.7
10716.5
11881.4
10903.5
12041.8
9777.95
1636
346.133
77.4085
13.7015
10528.6
2996.19
725.871
164.502
29.1148
9727.03
1607.52
338.821
75.629
13.3635
10472.1
2956.19
715.503
161.673
28.3987
9581.75
1575.34
331.052
73.7987
13.0329
10331.3
2903.98
701.978
158.45
27.8327
9279.53
1505.47
315.053
70.2378
12.4128
10039.7
2808.85
678.676
153.261
26.928
8711.71
1382.02
289.012
64.6789
11.4621
9462.77
2650.78
642.76
145.645
25.6408
7777.51
1282.38
276.46
62.8088
11.2112
7945.28
2307.69
571.886
131.496
23.3573
8054.77
1305.43
278.118
62.8078
11.1766
8396.28
2436.03
599.017
136.736
24.168
7673.53
1278.49
277.032
63.1007
11.275
7794.24
2251.91
558.631
128.856
22.9527
7656.02
1271.13
275.378
62.7743
11.2096
7815.38
2243.47
555.4
128.455
22.8493
34105.2
48941
47092.9
32148.4
24995.4
29948.3
24128.7
29820
28145.7
45014.9
29894.4
46134.7
123.797
137.755
168.696
219.481
295.081
401.892
135.291
149.886
182.097
234.439
310.693
415.667
115.201
110.992
129.82
126.951
162.357
162.68
216.27
223.092
295.666
311.22
402.147
419.466
548.3
744.131
1009.82
1375.58
1805.13
2115.35
554.711
732.445
952.298
1206.21
1453.44
1614.61
331.038
484.731
607.982
693.899
737.967
368.155
538.583
674.898
769.705
818.26
450.38
657.777
822.906
937.306
995.751
585.058
852.374
1063.82
1209.53
1283.73
784.772
1139.24
1417.07
1607.22
1703.71
1065.06
1537.82
1903.64
2152
2277.71
361.633
529.197
663.335
756.701
804.545
400.368
585.225
732.756
835.179
887.578
485.797
708.683
885.625
1007.94
1070.36
624.281
908.072
1131.7
1285.43
1363.64
825.175
1195.47
1484.45
1681.79
1781.91
1099.87
1584.54
1958
2211.29
2339.69
308.138
451.403
566.434
646.709
687.912
296.922
435.066
546.054
623.549
663.34
347.059
507.982
636.875
726.625
772.623
339.434
496.926
623.141
711.068
756.146
433.627
633.702
793.255
903.928
960.507
434.541
635.15
795.195
906.242
963.019
576.782
840.95
1050.27
1194.68
1268.26
595.006
867.571
1083.54
1232.51
1308.39
786.827
1143.28
1423.17
1614.87
1712.13
828.175
1203.2
1497.43
1698.73
1800.76
1066.8
1542.47
1911.32
2161.69
2288.17
1112.92
1609.31
1993.92
2254.46
2385.77
1444.78
2068.53
2542.53
2861.83
3023.82
1942.72
2745.08
3340.16
3740.24
3947.05
2596.66
3593.76
4309.97
4799.12
5067.45
3450.88
4623.54
5433.88
6021.3
6394.15
4379.48
5622.11
6451.03
7128.37
7668.04
5022.2
6270.68
7089.13
7827.24
8503.41
1459.92
2086.8
2562.08
2882.58
3045.71
1913.03
2704.89
3293.37
3689.71
3894.53
2461
3428.97
4131.56
4608.84
4864.58
3074.52
4205.21
5005.55
5562.99
5882.28
3650.12
4896.49
5760.11
6385.91
6776.95
4017.18
5324.63
6221.19
6891.52
7335.52
125.572
143.276
178.538
234.612
316.828
431.801
137.169
155.686
192.297
249.77
331.942
443.301
116.959
112.794
135.329
132.635
172.332
173.124
231.973
239.923
318.777
336.042
435.577
456.774
586.544
787.546
1052.31
1407.82
1822.16
2120.11
588.039
768.852
987.331
1234.43
1471
1620.44
335.819
491.811
616.964
704.247
749.03
383.025
560.617
702.88
801.966
852.765
476.922
697.188
873.058
995.226
1057.76
625.95
913.303
1141.62
1299.64
1380.35
843.749
1227.61
1530.54
1739.22
1845.59
1146.6
1661
2063.1
2338.67
2479.06
366.695
536.703
672.875
767.708
816.322
416.007
608.441
762.295
869.29
924.093
513.338
749.661
937.879
1068.39
1135.13
665.768
970.019
1210.98
1377.4
1462.35
882.868
1282.08
1595.86
1811.58
1921.55
1175.26
1698.56
2105.78
2384.46
2526.59
312.87
458.399
575.298
656.91
698.812
301.766
442.225
555.119
633.976
674.477
361.885
529.925
664.705
758.679
806.887
354.729
519.55
651.82
744.085
791.43
460.508
673.572
843.932
962.401
1023.07
462.682
676.877
848.217
967.405
1028.46
619.196
904.093
1130.84
1287.92
1368.2
640.48
935.297
1169.99
1332.59
1415.68
849.505
1237.2
1543.78
1755.18
1862.94
895.601
1304.48
1627.83
1850.73
1964.31
1157.97
1680.26
2089.77
2370.65
2513.6
1214.8
1763.64
2194.24
2489.46
2639.54
1549.94
2229.51
2753.53
3111.23
3294.27
2063.87
2934.49
3593.19
4043.66
4278.76
2718.6
3791.49
4582.16
5132.91
5437.23
3549.03
4793.39
5678.67
6331.9
6746.13
4437.62
5732.38
6617.79
7347.9
7924.6
5040.57
6308.23
7147.74
7906.33
8597.8
1551.51
2226.83
2745.45
3099.2
3280.55
2014.16
2861.96
3502.02
3938.93
4166.43
2559.94
3586.18
4344.54
4867.07
5148.8
3156.27
4339.22
5191.61
5792.86
6138.3
3702.66
4985.65
5886.86
6545.41
6956.93
4035.06
5355.71
6266.02
6948.6
7400.49
4831.92
3144.63
769.535
573.547
664.432
568.154
710.61
4400.25
4191.05
2667.82
3396.98
1569.57
2131.65
1295.22
1451.93
1203.16
4105.01
2228.39
1414.92
1246.62
1598.27
1376.29
1056.4
1002.97
950.99
825.593
1139.73
1021.25
4411.39
2641.3
3022.71
1904.25
1559.85
2219.57
1084.89
839.253
1203.87
9736.72
9648.26
9652.34
10610
16970.4
6894.67
7766.06
8336.08
9197.2
10573.2
2022.66
2887.74
3546.49
3996.45
4229.59
1518.95
2191.7
2713.14
3069.14
3250.61
1759.81
2539.06
3141.77
3551.62
3759.6
1507.2
2179.84
2703.07
3060.12
3241.48
1877.03
2697.87
3328.74
3757.79
3976.65
9593.31
10475.4
10861.8
11868.1
18060
9339.33
10414.2
10987.8
11906.3
13696
6292.96
7803.66
8796.02
9685.95
10555.8
8036.6
9528.29
10236.3
10992
11685.3
3983.92
5422.62
6435.9
7135.58
7531.5
5227.93
6801.89
7850.04
8620.06
9122.31
3346.65
4663.17
5618.76
6263.16
6603.49
3725.14
5139.85
6148.34
6828.06
7191.85
3127.07
4391.32
5318.73
5940.41
6262.2
8903.41
9726.05
10136.7
11158.7
17266.6
5360.06
6821.27
7816.21
8677
9475.79
3618.14
4975.06
5949.62
6628.33
7015.3
3208.91
4453.1
5361.85
5994.84
6350.33
4014.54
5398.81
6380.46
7109.48
7593.02
3503.02
4790.71
5719.42
6389.68
6795.48
2732.94
3819.15
4623.06
5183.78
5493.87
2615.71
3693.54
4498.96
5050.12
5341.53
2497.88
3560.43
4362.11
4902.5
5178.46
2175.8
3116.66
3834.08
4319.82
4567.48
2964.49
4169.27
5059.57
5662.85
5979.98
2666.47
3770.69
4595.92
5157.28
5451.33
9179.31
9484.21
9643.01
10629.6
16857.5
6006.23
7108.84
7845.2
8703.03
9818.18
7050.75
8322.4
9001.9
10006.5
12091.4
4628.76
5969.42
6894.35
7678.53
8333.19
3906.76
5233.32
6174.21
6891.1
7376.33
5311.31
6720.77
7686.76
8565.04
9420.18
2809.75
3931.68
4762
5338.3
5654.28
2205.64
3147.73
3863.1
4349.64
4600.53
3100.48
4306.12
5189.52
5807.76
6155.98
8028.16
7620.08
6895.35
5836.74
4311.37
1704.79
19437.7
19766.9
22302.6
23055.1
18968.2
20045.3
21256.1
20511.3
16043.4
20109.9
16684.7
20643.5
19123.7
17205.9
27023.3
18631.1
18813.8
20986
21483.7
17885.6
18948.7
20264.1
19741.5
15946.1
24283.9
16494.6
24082.8
19285.7
20996
28980.6
17700.2
17749.5
19290.6
19530.4
17044.3
18530.6
18919.2
18916.6
18246.3
21364.8
19009.1
21332.1
20910.6
23110.5
25967.2
16795.2
16864.7
17705.7
17778.5
16496.5
18221
17513.1
17796.7
16996.1
18568.6
17726.2
18051.2
18992.3
20619.7
22270.5
15860.2
15964.6
16594
16578.6
16089.6
17959.7
16553.1
17023.3
15998.4
15188.9
16753.1
14535.8
17337.5
17183.6
18222.7
15424
15574.3
15842.7
15792.7
15622.1
17145.6
15923.7
16313
15195.8
12949
15744.1
12647.8
16032.9
14951.8
16379.1
21992.5
21102
23170.5
24393.1
20271.3
20179.6
21508.8
20461
19293.7
14251.1
19221.2
14313
17040.1
15397.3
18522.6
20662.3
20014.8
21329
22137.3
19494.8
19576.8
20216.3
19335.8
17758.7
13697
17718.7
13782.6
15503.4
13795.5
17018.3
18886.6
18497.6
19094.9
19494.7
18185.2
18281.4
18526.8
17982.7
16696.3
13263.3
16469
13002.3
14732.4
12503.7
16506.8
17135.5
16908
17307.1
17493.6
16694.2
16727.6
17093.5
16656.8
15505.3
13388.8
15379.7
13084.5
13911.7
12380.2
16488.5
16139.4
15984.5
16255.6
16350.3
15654.6
15684.8
16190
15901
15054.2
14139.4
14969.1
13986.7
13791.5
12701.7
16745.2
15422.4
15281.1
15618.3
15681.1
15022.4
15246.9
15534.2
15397.5
14806
14605
14782.1
14526.2
13743.3
13091
17238.1
11935.1
6773.89
19618.7
12899.9
21465.5
15884.3
33604.5
41773.3
44243.7
54246.5
28670.7
24908.8
18176.9
14459.7
8862.9
5902.15
20239.6
20569.3
17489
20475.9
27349.8
24262.6
31687.8
25492.1
8348.21
5972.26
4641.74
3469.66
10130.4
8242.89
6193.02
5044.55
18700.4
19303.5
18999.3
15856
14652.9
11571.8
11594.8
13202.4
18664.1
18612.7
39351.4
40721.9
27739.8
28625.8
16002.1
13495.3
17333.8
12338.8
8063.65
8307.69
6570.64
9442.34
3413.3
4187.23
9156.71
12821.9
5488.48
6473.11
10082.9
17321.3
7019.77
11638.4
2665.3
6894.87
2217.65
5133.02
18067.7
22368.8
18762.9
22347.4
22058.2
22226.8
22583.8
22017.1
16046.1
21805.6
16387.7
21490.2
18535
22236.3
18558.6
22208.5
22841.9
21781.2
22801.7
21598.1
14861.6
21922.1
14367.6
22015.5
18360.4
21770.8
23178.9
32656.8
19459.3
25260.6
22985.4
35623
17402.1
19107.6
23258.5
31321.3
17220
17855.6
23507
31053.6
5626.06
7459.79
14447.5
25626.7
7044.07
8066.36
18752.7
29213.1
8688.58
8796.92
23605.1
32298.4
24953
26492.6
21397.7
20946.4
30961.6
26589.1
25338.3
21791
19100.4
35578.4
24272.8
24165.7
21775.8
22021.3
40378.9
2133.64
2591.73
4616.6
10874.6
3078.46
3515.83
6452.82
12185.8
4541.83
3856.12
8683.77
13794.8
26141.8
25512.2
23760.1
23066.2
20673.7
18641.2
15790.1
13832.2
11337.1
16012.9
23894.1
22820.4
24289.7
23660.9
21343
19821.1
17894.5
15946
12041.8
16055.4
24187.8
27160.2
24159.1
27891.8
23202.9
23909.8
22696.6
24156.1
22204.5
22555.1
22010.7
21874.4
23987.5
28033.8
23897.3
28030.1
22059.6
24493.5
21896.7
24459.1
22291.3
22504
22297.7
22500.6
18841
17899.8
12199.5
13632.7
18726.9
17449.8
12030.2
13749.2
19090.9
17832.4
12457.4
13658.3
19168.2
17649
12842.4
13654.9
1715.24
1126.11
763.512
984.588
650.816
601.767
2438.05
1399.65
1035.52
1938.79
1523.21
1286.58
2769.56
2210.95
2178.56
3380.23
2701.71
2394.39
23939.3
21164.2
19289.6
22196.7
20176.4
18644.7
16027.8
14578.5
13774.9
11047.9
9332.84
8592.02
5169.8
3697.83
3081.54
21754
19692
18046.4
22545.3
20077.6
18248.2
16861.6
14111
12572.1
11104.7
8623.97
7604.44
5484.73
3668.07
2890.59
27593.6
26884
30151.9
26945.2
31058.8
26951.9
37629.6
28483.2
21100.3
21428.7
20838.7
19392.2
23856.6
22352.6
23480.7
19987
23282.2
23027.5
21419.4
22812
28333.8
25562.5
28452.7
28933
31011.4
32122.9
23651
24582.6
21166.2
20566.9
25663.4
26368.6
16566.2
8982.1
15531.4
9936.83
16800.9
9054.66
15492.6
9868.84
16585.5
9099.27
15466.5
10282
15074.5
10756.9
15274.5
10668.9
21389.5
18180.1
21355.5
18208.1
23691.5
21308.3
24026.1
21158.6
20857.6
15140.3
21666.7
14897.1
21889.8
18154.1
22196.4
17959.9
24712
21023.6
24761.8
20770.9
20712.6
15211
20680.1
15123.7
13647.5
9140.31
11966.3
7779.41
12672.8
8190.79
11471.5
7274.51
14012.8
9709.71
12176.3
8016.72
14045.7
10052.3
12150.7
8075.34
2596.59
1354.61
4809.48
2644.57
2781.66
1674.01
5136.34
3167.06
3412.65
2510.29
5677.8
4105.39
13090
20357.1
9440.66
9066.13
6545.86
19864.5
13766.9
8059.63
8111.91
5405.09
20755.9
16269
12897.2
10041.4
6389.36
723.215
529.993
1563.09
1176.56
1032.63
704.443
2175.58
1735.42
1769.86
1340.15
3100.76
2523.93
20044.2
19166.7
13499.1
12748.5
8736.81
8644.23
7356.63
6612.22
4624.33
3777.64
18875.5
16967.1
14545.2
12580.3
11272.9
9826.73
8576.87
7576.43
5628.51
5427.01
14981.4
11931.4
15114.7
11696.8
18125.3
14890
18139.5
14754.5
12579.4
10018
12177.4
10012.9
15145.8
11546.5
15061
11536.4
18099.2
15075.3
17939
15044.8
12824.1
9885.99
12805.9
10017.9
9785.01
8110.84
6609.69
6771.58
9411.75
7907.58
6309.39
6401.71
10207.7
8280.96
6780.66
7159.85
10445.9
8280.2
7040.97
7262.14
1558.48
1360.68
1122.03
6741.79
3589.59
2921
1547.53
1512.8
1337.44
7402.3
4312.09
3641.96
2145.92
2380.17
2424.88
8264.3
5440.62
4821.23
17704.2
16215.6
15200.7
11973
11361.6
10996
8635.45
8347.01
8246.97
7298.79
6926.41
6689.56
9496.25
6763.35
6069.45
15163.5
13647
12659.9
11143.8
10112
9536.72
9141.33
8277.09
7805.73
8651.66
7523.59
6885.86
11599.9
7647.31
6803.98
4975.3
3080.21
2079.57
1577.51
5582.04
3335.7
2190.07
1617.41
5002
3079.58
2085.16
1588.6
5704.2
3406.82
2239.14
1644.61
4995.02
3052.85
2101.89
1596.49
5821.91
3452.57
2302
1665.94
6259.7
3650.5
2336.62
1705.38
6442.49
3788.5
2401.39
1759.42
5321.14
3248.53
2191.19
1624.93
4398.8
2872.07
2019.91
1557.95
4687.95
2952.96
2053.77
1527.16
4063.58
2712.71
1942.21
1500.16
5747.34
3472.29
2285.3
1686.84
4600.87
2988.75
2068.8
1602.44
5987.98
3625.07
2354.86
1736.89
4691.39
3072.84
2112.45
1633.84
3784.61
2658.27
1904.45
1500.5
2516.78
2156.5
1690.85
1410.85
3800.09
2648.05
1903.39
1498.69
2628.12
2187.08
1701.26
1419.38
3896.21
2651.07
1920.21
1511.76
2953.02
2283.2
1740.27
1453.24
3862.41
2594.89
1893.12
1544.14
3235.53
2352.39
1792.78
1452.01
3617.2
2527.63
1855.02
1478.76
1270.93
1753.81
1359.78
413.541
-88.5657
1531.71
1228.11
430.091
1499.61
1830.39
1390.63
435.732
184.869
1617.14
1255.24
439.421
1930.58
1965.62
1436.15
434.451
655.429
1759.63
1293.39
444.321
2464.14
2128.68
1507.7
471.233
1167.4
1920.17
1350.22
463.344
2829.11
2280.83
1597.19
545.8
1333.22
2045.68
1403.59
480.112
3027.75
2452.69
1636.19
521.751
1099
2188.14
1504.44
510.093
2949.15
2376.77
1607.01
521.476
1047.34
2122.3
1453.08
492.38
3058.73
2506.44
1655.17
488.323
1059.47
2243.93
1536.89
513.121
3122.48
2561.78
1696.82
497.955
1160.79
2302.31
1576.41
525.2
1307.1
934.663
608.576
339.287
108.638
1293.94
932.832
609.03
339.745
108.793
1324.75
943.294
612.554
341.056
109.144
1316.77
943.865
614.336
342.159
109.489
1357.93
954.909
617.465
343.195
109.754
1344.61
956.196
620.251
344.863
110.273
1363.25
970.062
627.989
348.612
111.38
1395.17
989.797
638.918
353.927
112.954
1391.32
968.784
624.467
346.473
110.711
1483.24
985.461
629.115
348.145
111.16
1397.99
965.139
621.113
344.675
110.167
1481.12
979.39
625.401
346.317
110.617
1403.64
980.959
631.394
349.849
111.711
1510.56
997.255
635.396
351.18
112.058
1436.31
1000.15
641.666
354.796
113.172
1545.18
1014.38
644.278
355.439
113.316
1341.87
939.363
608.548
338.91
108.498
1408.87
944.723
608.702
338.694
108.414
1358.72
946.218
611.535
340.21
108.867
1422.55
949.936
610.997
339.697
108.699
1391.18
957.076
616.016
342.155
109.421
1450.4
958.909
614.886
341.416
109.191
1442.6
969.39
620.522
344.054
109.959
1483.81
968.54
619.293
343.406
109.763
1490.99
975.712
623.054
345.166
110.276
10817
16746.3
11331.5
17041.9
11983.4
17309.2
12363.9
17402
11736.4
16572.9
10707.9
12092.4
10775.2
12777.8
10737.8
11936.5
10911.5
12058.4
9664.17
1649.13
352.726
79.2966
14.0706
10759.3
3065.34
745.455
169.495
30.0593
9728.84
1641.39
349.186
78.239
13.8474
10817
3046.54
738.657
167.22
29.4105
9746.85
1622.29
342.479
76.4516
13.5078
10810
3015.23
727.691
164.223
28.8505
9567.96
1559.29
326.471
72.74
12.849
10591.6
2929.26
704.848
158.889
27.8953
8981.65
1426.89
298.271
66.697
11.8131
9943.87
2756.41
665.733
150.563
26.4812
7856.33
1297.98
280.317
63.749
11.384
8047.69
2344.02
581.737
133.861
23.7845
8197.13
1332.69
284.406
64.2606
11.4359
8607.05
2502.24
615.353
140.424
24.8112
7714
1286.61
279.111
63.6252
11.3736
7842.48
2269.55
563.684
130.125