/*--------------------------------*- C++ -*----------------------------------*\
  =========                 |
  \\      /  F ield         | OpenFOAM: The Open Source CFD Toolbox
   \\    /   O peration     | Website:  https://openfoam.org
    \\  /    A nd           | Version:  11
     \\/     M anipulation  |
\*---------------------------------------------------------------------------*/
FoamFile
{
    format      ascii;
    class       volScalarField;
    location    "1.6";
    object      gradTz;
}
// * * * * * * * * * * * * * * * * * * * * * * * * * * * * * * * * * * * * * //

dimensions      [0 -1 0 1 0 0 0];

internalField   nonuniform List<scalar> 
5712
(
7608.3
24973.8
6050.03
25600.7
4530.04
26434.2
7122.22
40612.2
8746.08
55802
8697.6
40724.3
8406.45
33847
8738.96
30269.1
5288.13
3300.08
14145.4
8429.18
5164.63
2793.21
15415.8
7659.36
5813.87
4253.47
18621.9
13200.5
4399.25
3206.34
18310.7
13395
10328.1
4385.82
8949.48
4007.75
4147.84
9677.79
35388
9565.45
12692.1
4251.82
45443.9
12297.8
11823.5
4030.77
25362.7
7855.03
13031
4522.93
22133.1
7023.48
6574.05
3259.92
9398.1
3683.92
7121.37
3843.53
9151.68
3536.73
8956.52
5119.98
7889.58
3454.39
11533
4165.22
3956.46
1387.67
13122.3
9178.61
8059.2
5931.37
14412.7
11884.4
7848.63
6793.19
7731.1
5296.05
11033.1
7494.48
5269.56
3890.92
2626.36
2162.3
5021.51
4337.32
2537.73
2458.45
5114.32
3392.25
2579.35
1667.86
6975.01
3812.03
5296.42
6326.64
9652.56
6879.97
7755.73
10896.4
4571.96
2179.77
3100.08
3600.92
2240.41
939.15
1320.82
1327.93
8841.84
15813.7
5964.93
17613.1
10307.9
15453.8
7309.72
18381.8
11636.6
13943.7
9355.56
17845.2
13205.4
15395.8
10244.6
9960.12
10816.4
15426.4
14628.5
14697.7
15248.5
21828.4
12551.8
9953.98
8824.46
9924.12
15334.5
18380.6
16481.5
21269.9
20555.8
16834.6
15657.9
20967.7
20095
14554.8
14256.6
19613.7
19322.6
11326.6
8970.63
10897.3
9616.98
12065.2
10980.2
13116.5
12753.6
17946.3
18551.3
10557.2
9276.97
10352.2
10201
10860.3
11782.4
12301
14073.9
15988.5
18785.4
8801.8
6929.93
5994.44
7566.64
11641.7
14055.3
8025.45
12610.9
5175.45
6728.95
7771.19
6441.39
1494.86
4997.71
729.011
1771
4077.82
8427.48
1463.66
2888.12
791.968
4302.83
397.902
1492.42
5134.21
5202.64
5843.47
3701.24
8171.98
6600.16
9607.81
6732.96
1279.98
2849.02
2909.06
1701.04
1586.16
2041.58
2229.49
1690.48
13207.6
8061.77
2556.25
14911.6
8607.23
2826.36
12678.8
7979.46
2710.13
14656.4
8613.85
2825.13
11661.1
7337.19
2421.48
14269.8
8640.25
2892.94
6008.16
3357.38
943.207
7879.94
5220.78
1806.91
9528.03
6569.53
2266.31
11097
7225.09
2406.44
14106.6
8854.11
3092.95
7048.01
4070.87
1327.93
7540.9
5454.11
2066.42
9062.33
6692.09
2470.63
11276.6
7934.95
2851.58
14286.9
8988.98
3204.07
296.235
2034.23
2873.01
4148.78
2257.08
2576.22
5650.43
5345.92
603.192
1016.42
643.813
1058.18
481.326
1400.44
862.579
1836.7
3201.65
1566.85
4062.95
2355.69
2144.2
3737.52
3415.02
829.592
6244.17
1442.21
-2075.53
558.618
1706.59
1207.61
1133.58
977.206
9651.57
4298.23
2627.97
1591.06
9803.97
4460.48
3318.98
2017.95
9678.75
4789.34
4789.5
3279.35
3415.57
2405
1578.37
1506.19
12776.2
11321.5
5985.62
6194.96
13945.7
13060.6
6859.48
6898.45
5230.55
5366.16
10830.1
8996.46
3525.92
3698.29
1902.98
2202.81
4186.56
4159.87
2233.9
2415.33
3009.92
3264.65
1617.95
2056.94
4585.39
3111.63
4546.17
3115.12
7188
4098.72
6801.11
4320.26
2713.66
2236.8
2857.02
1997.51
1449.69
1364.59
1794.74
1157.67
11316.7
7613.89
5545.12
5465.09
11278.5
7847.2
5568.33
5441.3
11760.5
8267.37
5648.07
5312.16
14018.3
15357.5
12609.5
8292.69
4543.12
14560.3
13233.5
12085.1
9796.27
6072.97
13630.5
12130.6
9547.85
7210.93
4334.79
6221.83
5353.45
5675.38
6291.82
6503.69
5336.68
5772.62
6257.84
6930.97
5455.01
5896.73
6254.89
10983.4
7787.62
10026.3
6952.95
7720.3
6166.81
7052.49
5921.86
5515.84
6265.22
9136.87
7949.05
7920.9
6885.29
6614.97
5938.52
5673.18
5536.85
4319.05
5949.3
7076.38
4795.07
4690.24
2837.44
9404.82
7258.89
6511.83
5274.93
3750.31
2249.33
5452.21
3995.89
4698.95
2231.2
1678.12
960.411
5049.61
3671.71
1719.55
1429.8
4001.12
1771.97
1539.65
799.612
3016.16
2718.66
2538.31
3661.81
4208.2
3892.2
3226.59
4662.42
3084.14
1946.35
1859.38
2503.82
895.314
418.472
136.822
429.478
3655.67
1529.03
452.367
4131.86
1082.31
289.407
3755.09
1673.72
514.896
4158.06
1136.47
319.172
3611.33
1708.55
446.567
4143.6
1174.58
278.825
4871.64
2528.37
598.013
4230.14
2072.49
507.009
3981.24
1921.5
527.14
3800.1
1784.34
389.939
4179.96
1171.66
182.138
6079.23
3114.44
862.897
5288.05
2643.79
735.673
4651.06
2302.57
673.368
4248.27
1833.81
459.377
4545.77
1109.87
274.468
1636.11
577.519
125.259
-134.699
682.758
253.02
71.5371
-23.7411
1730.17
630.265
170.322
-76.2665
865.259
347.646
166.942
75.9163
1851.05
696.452
250.641
17.9217
1466.82
655.942
237.26
47.4219
1099.3
588.026
174.872
-27.8709
998.793
621.797
330.265
180.565
1515.7
650.07
185.224
-138.162
1283.01
542.995
229.852
-129.288
1798.25
681.837
222.576
-82.4229
1613.32
613.82
243.797
-209.092
1200.43
590.924
216.307
-48.7958
973.826
469.479
239.008
1.4922
865.789
504.727
278.108
158.577
657.692
385.329
242.98
133.121
2063.57
695.633
132.654
-272.775
2009.53
637.069
191.962
-367.059
2060.64
704.308
148.114
-260.578
1948.6
619.53
197.467
-356.941
2019.87
704.474
215.324
-175.265
1823.55
585.905
235.194
-285.368
1771.33
648.695
284.277
3.41694
2000.46
654.119
322.9
-330.565
1569.94
575.513
278.746
-72.3208
1564.21
446.058
167.704
-240.727
616.205
161.57
44.8657
-46.3625
1626.23
477.397
182.932
-228.763
646.492
175.221
55.7313
-35.2799
1671.61
512.882
219.496
-197.523
666.093
191.073
69.2919
-22.2696
1514.32
483.228
248.48
-151.119
652.586
197.657
93.2355
0.952729
1391.21
478.816
261.603
-81.0309
590.586
208.126
123.888
31.563
956.938
375.086
176.117
-27.2041
552.884
262.864
149.943
74.5893
1112.6
388.207
192.852
-62.0311
562.837
233.689
138.139
54.0148
763.173
353.937
182.781
25.165
487.019
268.654
157.139
94.4838
528.758
311.309
198.588
114.506
395.754
258.972
168.667
119.833
-12.0246
4.44776
4.34024
2.79729
1.97485
-1.73288
3.04613
2.4218
1.51326
1.06063
6.39338
13.396
8.96707
5.38713
3.73879
18.2635
13.2609
7.82223
4.55955
3.13989
25.6305
23.8935
14.5874
8.57607
5.91941
71.9356
44.5977
25.1451
14.4841
9.94752
84.6266
51.9976
29.3596
16.9562
11.6648
123.633
68.8924
37.787
21.6591
14.8812
43.7863
34.8591
20.6372
12.0597
8.3235
47.3681
32.8768
18.9574
11.02
7.59689
30.1448
27.7177
16.6096
9.71164
6.69547
57.5437
34.5
19.0384
10.9109
7.48042
56.848
41.3514
24.2119
14.1329
9.75593
63.8807
39.2842
22.1642
12.8176
8.82999
98.067
55.3888
30.469
17.4832
12.0182
82.0478
45.7193
25.1097
14.4124
9.91173
-22.5628
2.07147
3.18419
2.13608
1.51994
-12.4359
0.552782
1.19958
0.81408
0.579714
-10.4919
7.69629
6.02941
3.71355
2.59015
-8.06753
2.58609
2.21868
1.37606
0.959801
4.40648
14.0024
9.10303
5.40616
3.73645
8.63473
9.36728
5.53029
3.19462
2.19014
37.6186
27.4686
15.62
8.96504
6.13359
25.6669
17.6223
9.78031
5.57419
3.8041
71.2363
36.9491
19.6305
11.0778
7.55226
1913.74
4359.3
1958.88
4330.41
2170.31
4312.97
2576.46
4480.51
2666.59
4593.37
1112.6
1648.51
1781.32
2757.43
610.593
825.662
224.603
282.448
9845.49
2358.11
542.201
121.548
30.3303
2692.3
726.347
193.619
44.1753
9.65158
9704.39
2306.33
529.941
117.837
29.6265
2742.55
809.48
200.009
46.6508
11.6348
9220.56
2177.44
498.704
110.793
27.8984
2662.08
781.939
192.646
44.7051
11.1902
8387.88
1964.62
448.863
99.6844
25.12
2579.37
741.655
180.395
41.4992
10.3349
6968.49
1624.8
371.613
82.6786
20.8702
2423.64
678.383
163.282
37.3407
9.27535
3251.74
793.244
184.688
41.4262
10.4838
1180.63
335.689
80.2326
18.0454
4.47466
4875.59
1172.53
270.797
60.4214
15.2597
1736.71
487.365
117.38
26.8305
6.71008
1901.14
467.427
109.36
24.6565
6.25414
663.615
196.053
46.65
10.4953
2.62773
656.88
160.641
37.6964
8.53362
2.16729
265.873
71.9174
15.9888
4.45253
0.886511
-59.7736
391.181
4693.63
-958.534
770.864
826.076
2409.68
3088.98
1953.95
3663.53
3101.23
4781.85
3757.54
4661.15
1946.11
2618.44
2064.05
2449.08
1072.35
1115.02
2316.18
1654.69
607.098
-309.776
-595.632
-709.567
-120.747
13476.6
3607.73
4585.25
3111.68
59.2919
188.532
3167.95
-1100.12
-523.246
-800.545
-433.006
7377.29
3987.35
1584.25
1225.85
3752.52
2175.96
746.048
1469.89
-1223.66
-626.588
851.829
713.091
8854.95
4318.98
5510.44
2933.52
4100.66
4722.01
1660.95
-656.702
1102.03
1606.49
1279.99
1071.75
929.213
676.239
1292.77
1024.08
785.562
541.534
227.918
530.491
436.677
327.078
205.013
70.5899
-276.6
-230.655
-171.945
-105.528
-35.5116
-531.645
-443.403
-330.926
-203.436
-68.5054
-634.269
-529.969
-396.342
-244.096
-82.2873
-104.277
-81.7183
-55.1874
-29.9448
-9.07353
9548.6
7987.27
6532.92
5662.88
4940.27
3052.81
2539.96
2227.67
1752.92
880.202
3466.74
2693.88
2163.02
1603.49
790.962
2338.88
1799.55
1473.26
1076.32
434.917
140.068
123.934
183.12
166.181
76.2366
236.34
263.637
253.834
192.971
76.1705
2641.97
2148.4
1637.6
1100.16
437.042
-640.012
-291.522
-100.017
-5.57695
11.0532
-409.478
-283.368
-163.825
-72.6515
-16.9809
-546.03
-322.961
-154.058
-51.9238
-7.96164
-394.501
-329.068
-240.901
-143.585
-46.8043
5342.29
4663.4
3876.89
3397.68
2973.34
3039.1
2351.98
1874.59
1357.07
628.88
1417.77
1225.14
986.114
674.379
256.85
1063.52
887.199
689.208
456.41
168.555
3103.03
2467.38
1840.2
1193.01
448.366
1904.47
1587.82
1219.77
791.572
282.139
645.015
532.069
405.372
261.643
93.4849
1285.85
1062.78
801.683
507.136
176.389
-1058.82
-851.84
-613.329
-366.126
-121.015
-551.434
-449.76
-325.598
-193.629
-63.5277
748.691
628.279
487.084
319.12
115.092
629.869
530.73
411.977
268.953
96.0411
5645.26
4020.04
3327.31
2904.07
2392.19
3263.95
2497.2
1882.49
1301.36
566.814
4002.84
3202.7
2505.36
1864.34
871.384
2322.07
1859.8
1414
963.038
405.208
3460.27
2794.08
2097.42
1351.28
491.837
3555.18
2603.36
2030.98
1451.1
589.01
1440.06
1182.25
889.825
564.654
197.82
-583.179
-481.52
-353.83
-213.626
-70.8949
958.509
799.43
619.596
408.041
148.186
-29485.7
-48084.8
-24474.1
-38898
-26108.4
-54376.5
-31225
-69079.8
-18719.4
-12850.2
-20961.1
-13120.2
-17211
-11090.6
-21219.5
-11239.8
-24504.7
-18553.9
-35544.6
-25711.5
-21064.3
-16873.6
-29675.5
-22381.6
-16821.7
-17268
-13841.5
-13377.5
-16376.4
-15336
-40593
-11205.1
-15544.3
-5831.13
-49491.9
-13754.6
-13888.9
-5218.71
-30299.2
-9541.38
-15919.5
-6113.99
-27014
-8383.65
-12762.1
-5148.96
-16173.3
-5872.45
-12127.8
-5348.81
-14049
-5099.2
-12557.1
-6122.82
-11224.4
-4471.6
-14308.3
-5065.49
-5012.42
-1763.64
-10744.9
-7242.15
-9273.22
-5720.85
-9419.5
-7624.61
-8107.72
-5812.58
-9464.57
-5471.5
-11109.7
-7050.95
-6361.06
-3843.37
-3426.29
-2134.2
-5488.75
-3810.39
-2875.87
-2067.96
-6474.13
-3576.01
-3564.47
-1818.75
-8370.91
-4263.36
-5488.06
-6325.32
-10655.8
-7180.05
-7752.83
-10706.2
-5661.65
-2545.57
-3283.96
-3642.05
-3039.17
-1225.25
-1474.43
-1375.73
-12635
-15461.1
-7149.09
-17542.9
-13137.1
-14752.2
-8214.1
-17929.8
-13271.5
-13414.3
-9786.99
-17043.6
-9012.7
-7244.16
-9942.2
-11059.6
-11045.1
-9864.14
-11500.1
-13435.5
-14541.3
-20642
-6849.42
-7159.67
-7838.89
-9475.83
-14684.9
-14733.8
-10295.9
-18731.4
-14445.2
-13659.9
-10130.9
-18456.3
-14392.7
-12087.5
-9482.82
-17228.9
-14260.1
-8068.26
-6423.35
-8470.68
-6803.14
-9517.3
-7750.76
-10479.4
-8943.98
-15687.5
-14345
-7553.03
-6555.78
-7739.9
-6837.07
-8600.54
-8168.09
-10360.7
-10391.1
-14419.8
-14963.9
-6993.34
-5585.94
-5146.83
-6650.97
-8593.23
-11703.2
-6502.84
-10822.9
-4777.14
-6214.17
-6822.56
-5588.35
-1021.74
-4393.94
-340.281
-1325.65
-3180.29
-7423.14
-769.109
-2122.15
-581.419
-3966.24
-219.323
-1240.76
-4927.67
-4881.98
-5669.77
-3453.58
-7628.16
-5956.48
-9179.52
-6087.02
-1176.62
-2653.5
-2805.14
-1556.6
-1500.77
-1894.66
-2146.97
-1579.05
-6261.89
-2153.87
-8483.59
-2891.79
-6402.6
-2250.29
-8685.95
-3114.81
-6358.34
-2217.22
-9189.04
-3534.63
-3804.98
-1086.05
-4805.32
-1833.8
-5487.33
-2121.55
-6639.9
-2506.15
-9713.06
-3857.64
-4799.69
-1480.45
-4513.82
-2195.53
-5494.99
-2578.01
-7373.13
-3197.07
-10113
-3818.76
-6477.81
-6050.77
-4978.42
-4850.52
-10893.4
-8332.03
-8911.86
-7374.63
-4296.52
-3629.32
-1772.62
-1245.61
-4073.91
-3843.22
-1663.01
-1695.09
-3194.34
-4802.48
-3741.37
-5180.59
-3866.91
-2667.2
-3503
-705.445
-7224.04
-2006.53
2451.84
198.293
-1114.85
-485.563
40.5706
439.711
-2380.9
-1582.85
-900.964
-504.139
-2563.33
-1688.58
-1390.04
-614.346
-2894.87
-2044.81
-1925.21
-910.537
-1373.39
-227.063
431.731
884.766
-5302.02
-5667.3
-4148.19
-3852.01
-7237.68
-7235.68
-6041.14
-5070.29
-2686.31
-2937.66
-3927.4
-4461.88
-2567.43
-2214.53
-1141.05
-1032.01
-3922.31
-3085.72
-2023.21
-1600.02
-1466.06
-1584.67
-349.615
-669.964
-1725.62
-1135.82
-2408.82
-1634.04
-2607.18
-1964.75
-3664.47
-2643.79
-693.613
-399.043
-1220.44
-655.816
288.216
432.406
-369.097
116.025
-3380.03
-4132
-2718.35
-3911.86
-3362.2
-4167.31
-2781.24
-3903.66
-3594.44
-3919.28
-2947.83
-3715.85
-3050.92
-5085.45
-2518.57
-2067.16
-2052.9
-7546.55
-5262.51
-4638.63
-4550.23
-4311.7
-6072.47
-4990.76
-4077.14
-3616.21
-2625.56
-4775.42
-4674.63
-5924.08
-9109.18
-4579.11
-4246.97
-5698.21
-8701.9
-4302.13
-4030.54
-5274.4
-8055.02
-7261.73
-5551.99
-6377.78
-4800.04
-5359.19
-4185.42
-5196.25
-4647.3
-4921.4
-7441.05
-5879.25
-5509.84
-4833.79
-4772.1
-4144.24
-4279.27
-4017.51
-4659.29
-3373.56
-6426.64
-3967.55
-2816.63
-2764.42
-1082.39
-5866.53
-5105.74
-4567.13
-3416.05
-2045.11
-729.165
-3061.85
-2373.36
-3305.12
-1064.38
-534.754
35.787
-3788.92
-2514.3
-747.546
-465.58
-2651.43
-721.069
-351.97
127.604
-1715.25
-1673.9
-1731.08
-3217.12
-2627.88
-2850.74
-2445.35
-4456.37
-1922.47
-1131.41
-983.987
-1984.61
215.523
365.304
780.983
177.163
-3320.02
-969.327
-6071.12
-570.856
-3132.28
-1056.78
-5918.22
-594.753
-2465.86
-657.57
-5381.65
-439.49
-3072.21
-714.141
-2716.9
-647.892
-2781.11
-845.526
-2721.67
-510.45
-5062.08
-606.072
-4185.13
-855.821
-3677.67
-607.794
-3522.86
-684.499
-3674.06
-529.481
-5321.26
-635.804
-687.338
-161.906
103.589
294.457
-236.38
-47.0738
37.3782
89.5729
-684.041
-138.096
109.845
269.859
-175.887
6.52515
25.1606
36.857
-707.227
-111.195
96.011
220.843
-65.4763
153.613
263.669
282.171
416.605
352.653
419.143
407.619
820.708
552.422
405.88
276.242
-338.411
56.1851
274.785
461.976
-268.209
106.804
200.836
450.142
-756.914
-98.9576
149.351
360.323
-578.134
9.40774
166.971
552.886
66.2085
215.608
298.233
385.827
18.4528
194.818
208.548
318.021
468.571
370.946
292.457
216.167
326.961
288.529
218.964
196.374
-1067.76
-258.972
120.23
484.721
-1305.21
-293.124
-5.40526
595.963
-1027.71
-229.987
133.332
494.399
-1257.41
-272.938
-4.25904
590.527
-961.224
-185.401
86.5522
414.748
-1147.22
-234.581
-35.7485
528.603
-646.546
-64.212
68.5977
276.307
-1192.06
-208.879
-54.0414
652.201
-599.455
-15.2654
92.5416
414.387
-1194.4
-219.912
-44.8305
410.476
-516.29
-83.3356
8.18446
101.236
-1119.45
-192.597
-30.8958
412.599
-492.479
-74.4095
9.56657
98.495
-966.639
-138.752
-29.1063
398.347
-421.952
-51.7601
18.9864
102.615
-798.942
-92.7312
-46.9832
352.97
-347.752
-28.696
14.8128
96.1286
-592.645
-19.8364
-7.00243
299.643
-183.609
24.1989
21.5637
91.9644
-278.15
82.9527
139.031
290.9
68.8686
148.736
121.959
138.912
-491.484
5.01582
66.2985
293.755
-26.3449
92.9509
71.495
115.566
-15.0144
169.239
180.218
263.472
167.837
195.001
158.268
149.294
253.217
245.969
188.365
186.382
274.646
232.49
167.954
137.537
63.1955
16.919
6.14779
2.99841
1.96495
26.4302
8.04358
3.15634
1.59177
1.05437
72.189
23.8433
10.3023
5.45099
3.66725
40.299
16.8345
8.16999
4.50822
3.0707
88.1891
33.1518
15.5852
8.51934
5.78867
102.413
48.5921
25.1482
14.1846
9.72095
114.748
56.6057
29.6729
16.7849
11.5072
127.033
69.1871
37.6125
21.5121
14.7853
105.984
43.4807
21.434
11.8972
8.10958
89.6626
38.3659
19.2573
10.7391
7.33015
95.9572
36.063
17.3201
9.55285
6.50679
77.8464
35.3662
18.3744
10.374
7.11527
113.701
50.0344
25.233
14.0958
9.62578
90.649
43.1957
22.4391
12.6475
8.65478
106.011
56.3993
30.4759
17.4015
11.9547
88.1876
46.66
25.1465
14.3422
9.84804
69.7241
15.2378
5.01263
2.35007
1.52184
32.6513
6.23408
1.95543
0.906286
0.585761
74.0058
19.246
7.50806
3.839
2.55906
34.1597
7.66331
2.85206
1.44293
0.96035
75.32
23.0192
10.1154
5.42706
3.67212
36.9819
12.1714
5.73539
3.1693
2.16396
82.1636
31.8591
15.818
8.86338
6.07926
48.1849
18.881
9.57254
5.40045
3.71303
66.9247
34.4525
18.6013
10.6651
7.35358
-1956.52
-3725.96
-2022.02
-3739.75
-2218.48
-3779.23
-2451.31
-3891.67
-2382.25
-3917.12
-973.01
-1473.22
-1578.47
-2423.09
-498.921
-712.002
-126.594
-193.299
-9619.19
-2290.6
-524.726
-117.334
-29.2263
-2595.08
-703.74
-187.395
-42.657
-9.29897
-9444.55
-2235.05
-512.212
-113.691
-28.5483
-2646.83
-784.362
-193.452
-45.0248
-11.2095
-8914.43
-2102.59
-481.202
-106.845
-26.8923
-2562.51
-755.419
-185.922
-43.0893
-10.7735
-8064.8
-1892.45
-432.83
-96.1771
-24.2449
-2460.72
-712.349
-173.485
-39.9187
-9.93991
-6702.58
-1567.37
-359.077
-79.9693
-20.2019
-2288.59
-648.136
-156.597
-35.8749
-8.91866
-3175.6
-773.988
-180.107
-40.3904
-10.2221
-1107.54
-317.348
-76.0602
-17.1371
-4.25433
-4725.71
-1137.17
-262.793
-58.6673
-14.8259
-1630.95
-463.325
-112.109
-25.692
-6.43554
-1861.81
-457.223
-106.826
-24.0633
-6.09969
-613.639
-182.409
-43.3449
-9.74783
-2.44016
-632.4
-154.318
-36.0845
-8.14534
-2.06357
-227.366
-60.9418
-13.1923
-3.79269
-0.716952
-88.0984
-1350.49
-5915.13
635
-6825.7
-3009.83
-6621.91
-3079.66
-12122.5
-6474.7
-13568.1
-7183.66
-114.996
-419.575
-654.637
-771.163
-683.607
-226.602
-188.438
-662.438
-1005.39
-1119.77
-907.124
-283.649
-95.8121
-99.9469
-331.592
-331.703
-471.141
-467.238
-449.604
-433.658
-392.49
-394.507
-277.291
-278.703
857.006
2125.6
3450.96
2454.35
2234.94
1044.21
767.031
2147.26
3497.67
4076.3
3402.36
1520.48
-103.589
-87.4447
-66.1642
-41.1779
-13.9719
-378.447
-319.987
-242.54
-151.168
-51.3345
-590.363
-499.072
-378.217
-235.705
-80.038
-695.188
-587.426
-444.976
-277.214
-94.1157
-616.334
-520.801
-394.437
-245.653
-83.3804
-207.047
-177.177
-135.319
-84.5082
-28.667
-169.602
-143.029
-108.119
-67.2416
-22.8073
-596.965
-504.227
-381.811
-237.802
-80.7251
-905.587
-764.513
-578.653
-360.303
-122.297
-1007.66
-849.806
-642.626
-399.903
-135.705
-815.498
-687.012
-519.048
-322.819
-109.524
-256.457
-217.261
-164.793
-102.653
-34.8286
-86.3855
-73.0006
-55.2957
-34.4435
-11.6923
-90.1681
-76.2541
-57.805
-36.0291
-12.2348
-299.255
-253.194
-192.038
-119.75
-40.6758
-299.409
-253.379
-192.22
-119.884
-40.725
-425.136
-359.641
-272.728
-170.045
-57.7557
-421.559
-356.559
-270.348
-168.54
-57.2408
-405.761
-343.287
-260.331
-162.304
-55.1223
-391.024
-330.484
-250.38
-155.992
-52.9605
-354.354
-299.834
-227.302
-141.617
-48.0686
-355.243
-299.729
-226.66
-140.993
-47.8249
-251.328
-213.267
-161.751
-100.592
-34.0681
-250.938
-211.562
-159.726
-99.1511
-33.5796
757.373
627.752
469.3
291.128
99.003
1869.51
1544.46
1154.01
717.715
245.17
2996.61
2455.47
1833.5
1149.29
398.359
2115.48
1728.65
1294.19
815.524
283.811
1958.13
1604.89
1196.62
742.863
242.149
944.307
790.753
598.737
373.532
119.24
678.964
563.463
421.349
261.175
88.7161
1895.29
1569.74
1173.44
728.43
248.029
3065.95
2526.32
1885.74
1173.7
401.696
3547.03
2907.79
2168.31
1353.95
466.082
2959.37
2424.71
1808.73
1130.21
387.837
1336.49
1106.57
833.141
523.624
179.669
213.147
519.655
757.504
876.792
790.448
345.27
328.565
803.17
1143.29
1244.91
1006.17
353.35
171.489
163.227
407.559
396.468
545.311
531.51
516.587
488.065
461.307
408.136
403.156
323.248
-715.829
-1913.24
-3085.8
-1971.01
-1660.93
-425.165
-707.602
-2054.52
-3293.62
-3710.18
-2877.25
-895.496
192.637
163.283
124.086
77.5033
26.3502
469.292
397.408
301.713
188.3
63.9918
683.839
578.84
439.269
274.061
93.121
791.329
669.632
508.026
316.892
107.663
713.805
604.382
458.731
286.211
97.2462
315.367
270.122
206.857
129.652
44.102
296.798
251.425
190.963
119.227
40.5274
724.8
613.266
465.226
290.186
98.5894
1031.03
871.691
660.791
411.962
139.929
1121.7
947.473
717.661
447.191
151.863
905.956
764.686
578.884
360.613
122.455
320.087
271.869
206.834
129.19
43.9034
155.021
131.43
99.9018
62.4079
21.2194
147.552
125.098
95.0862
59.398
20.1957
368.192
311.922
236.904
147.895
50.2679
358.184
303.453
230.478
143.885
48.905
492.514
417.117
316.7
197.661
67.1738
479.975
406.421
308.52
192.527
65.4236
466.704
395.373
300.259
187.422
63.696
440.59
372.916
282.964
176.519
59.9727
417.263
353.912
269.006
167.979
57.091
368.351
311.666
236.387
147.403
50.0673
366.375
312.151
237.999
148.783
50.5605
292.173
247.54
187.887
117.159
39.7817
-628.837
-517.817
-385.002
-238.127
-80.9292
-1676.52
-1379.73
-1028.02
-638.767
-218.34
-2662.28
-2167.38
-1611.14
-1009.09
-350.672
-1659.64
-1323.39
-970.981
-605.138
-210.096
-1410.11
-1113.34
-800.326
-480.992
-148.27
-351.168
-256.585
-166.154
-86.3463
-16.2416
-625.139
-517.717
-386.507
-239.397
-81.3164
-1811.62
-1498.95
-1119.82
-695.105
-236.76
-2879.81
-2366.69
-1763.05
-1096.49
-375.391
-3208.56
-2613.04
-1937.98
-1206.73
-415.311
-2469.32
-1993.82
-1468.45
-910.286
-311.203
-750.8
-589.256
-422.641
-257.096
-86.515
-1527.11
-964.909
-318.884
553.83
849.335
1075.58
466.317
-11175.1
-1887.61
-3304.13
-1564.38
180.559
-3943.98
750.086
2340.74
1076.83
-6089.71
-2828.18
-598.597
-640.098
-3375.05
-1362.44
-329.97
-1058.73
1961.14
1179
-558.857
-244.288
-7904.88
-3646.39
-4418.27
-2153.84
-3518.44
-3507.99
-1151.64
1185.14
-484.456
-762.284
-490.544
-396.092
-448.612
-480.393
-607.749
-391.372
-259.436
-180.998
-92.4075
-266.526
-209.311
-151.489
-93.9979
-32.6232
501.155
425.129
323.028
201.589
68.4995
764.959
645.355
487.747
303.113
102.727
968.702
817.353
617.972
384.247
130.278
424.525
361.206
273.801
169.591
57.1283
-7792.35
-6677.7
-5708.01
-5442.9
-5394.57
-1203.78
-768.705
-800.368
-858.444
-583.642
-2295.31
-1647.61
-1346.22
-1104.53
-647.166
-995.613
-634.45
-548.763
-465.695
-201.508
174.524
147.012
98.7282
45.4578
7.85555
-3246.88
-2608.05
-1959.22
-1297.96
-509.817
680.475
570.423
421.507
252.617
81.7671
2024.1
1642.48
1205.55
738.053
249.107
964.551
806.219
602.415
370.223
124.236
-4135.49
-3671.72
-3164.53
-3049.83
-3041.96
-1931.92
-1357.46
-1089.04
-864.003
-473.184
-466.511
-367.881
-300.836
-232.671
-105.852
-512.633
-400.438
-305.778
-211.621
-85.1555
-2782.65
-2211.78
-1659.54
-1091.34
-419.602
-1134.64
-903.462
-677.227
-442.31
-161.453
-258.646
-194.057
-140.543
-92.4777
-35.399
-906.389
-733.503
-546.06
-345.238
-121.105
1745.38
1453.54
1086.1
669.616
225.85
1061.93
894.076
672.517
415.131
139.773
-462.896
-367.424
-276.218
-181.939
-67.766
-190.856
-144.016
-107.58
-74.0489
-29.0747
-4754.16
-3220.35
-2688.81
-2512.1
-2318.07
-2623.52
-1920.68
-1417.34
-995.973
-459.548
-2911.38
-2225.3
-1711.13
-1346.18
-673.6
-1582.11
-1195.81
-881.754
-617.098
-286.82
-2921.07
-2323.41
-1731
-1119.74
-413.506
-2422.63
-1584.5
-1230.43
-947.047
-420.458
-971.623
-776.98
-575.97
-366.267
-130.193
1069.22
902.289
680.619
421.356
142.209
-379.145
-288.192
-216.737
-150.093
-59.6363
1.28886
34.8656
77.3923
93.302
45.7985
-70.9683
-20941.5
-18501.4
-17561.2
-20006.2
-15371.3
-12186.7
-13785.6
-10477.8
-18248
-16063.7
-16821.7
-15877.2
-14779.5
-12613.5
-15556.5
-17282.5
-15463.4
-14148.1
-15944.4
-13016.7
-11028.6
-11575.8
-9288.34
-16414
-14658.6
-15134.3
-13850.1
-13126.1
-12250.1
-12697.9
-13617.4
-12491.3
-11221.8
-12271.9
-10853.9
-9334.22
-9683.87
-8315.13
-13780
-12606
-12834.8
-11793.3
-11181.8
-10337.7
-10706.3
-9549.29
-8990.49
-7934.97
-8413.97
-8075.45
-7250.13
-7205.91
-6584.03
-9982.71
-10112.5
-9423.79
-9535.12
-8418.37
-7619.04
-8478.25
-6122.58
-5855.03
-5111.99
-5334.6
-5418.88
-4911.74
-4761.39
-4396.94
-6625.04
-6642.24
-6330.92
-6221.81
-5772.12
-5221.41
-5664.23
-2206.73
-2129.01
-1850.28
-1916.22
-2003.59
-1872.22
-1745.92
-1627.55
-2508.1
-2514.42
-2350.8
-2254.44
-2169.32
-1991.65
-2137.37
-7849.95
-7730.19
-11808.5
-12733.5
-7369.91
-6539.31
-10354.8
-8416.29
-6043.75
-4401.32
-6004
-4383.91
-6020.17
-5774.32
-4476.15
-7802.77
-7402.46
-10512.9
-11464.4
-6871.13
-6214.94
-9144.05
-7866.33
-5994.24
-3810.22
-5893.91
-4048.92
-5381.5
-5186.65
-4458.62
-7092.94
-6758.81
-8902.54
-9548.04
-6349
-5900.74
-7964.36
-7040.57
-4916.71
-4067.19
-4907.38
-4324.57
-4579.98
-4598.89
-4526.75
-5685.61
-5472.02
-6655.27
-6992.41
-5195.58
-4854.22
-6158.54
-5614.77
-4651.78
-3600.97
-4578.72
-3870.67
-4283.18
-4266.68
-3996.75
-3900.21
-3777.41
-4389.5
-4558.12
-3514.6
-3250.81
-4134.47
-3793.65
-3234.17
-2741.1
-3166.85
-2909.83
-2966.7
-2925.34
-2816.85
-1447.07
-1403.35
-1601.93
-1655.3
-1300.49
-1194.77
-1518.48
-1398.37
-1054.33
-999.354
-1126.17
-1100.55
-1094.82
-1068.35
-1024.4
7574.02
24459.7
6016.98
25598.8
4512.97
26436.3
7117.79
40620.8
8740.9
55814.1
8680.29
40720.7
8370.76
33828.9
8714.63
29615.7
5280.62
3298.31
14146.3
8429.33
5163.03
2793.01
15419.2
7660.57
5777.53
4224.74
18249.7
12953.9
4377.55
3197.25
18326.2
13413.8
10334.6
4378.86
8950.02
4005.3
4142.93
9686.17
35397.7
9566.78
12694.3
4251.85
45454.5
12300.1
11825.8
4031.44
25376.1
7857.46
13034.8
4523.53
22150.7
7026.65
6512.3
3229.62
9234.63
3622.29
7122.14
3844.17
9166.93
3542.51
8955.58
5120.2
7894.56
3456.78
11542.6
4168.84
3958.77
1388.57
13121.2
9177.9
8059.04
5931.17
14411
11883.1
7848.76
6793.01
7731.27
5296.03
11032.3
7494.2
5269.96
3890.94
2625.97
2162.1
5022.17
4337.45
2537.76
2458.44
5115.17
3392.34
2579.11
1667.66
6975.92
3812.63
5296.62
6326.96
9652.45
6880.31
7755.84
10896.8
4573.4
2180.39
3100.28
3601.14
2240.57
939.26
1320.72
1327.95
8792.38
15810.6
5929.55
17606.2
10310
15449.3
7313.41
18378.5
11636.8
13942.5
9356.45
17844.5
13204.4
15393.6
10244.2
9960.61
10817.3
15424.4
14627.3
14696.8
15248
21828.4
12550.1
9953.07
8824.06
9924.16
15334.9
18409.2
16526.3
21279.6
20536.9
16826.8
15652.2
20958.8
20089.5
14551.9
14252.7
19612.3
19320.6
11325.1
8969.55
10896.2
9615.85
12064
10978.8
13114.8
12751.6
17945.6
18550.2
10556
9275.9
10351.3
10199.9
10859.6
11781.3
12300.4
14072.9
15988.5
18784.9
8801.28
6929.67
5994.23
7566.59
11640.7
14054.5
8025.02
12610.4
5175.41
6729.05
7770.95
6441.29
1494.73
4997.7
728.917
1770.96
4077.68
8427.29
1463.66
2888.08
791.877
4302.89
397.786
1492.39
5134.32
5202.77
5843.71
3701.34
8172
6600.2
9608.1
6733.04
1279.98
2849.08
2909.17
1701.08
1586.14
2041.6
2229.54
1690.5
13239.4
8078.53
2566.48
14920.6
8618.9
2830.3
12674.7
7978.38
2710.06
14652.8
8612.03
2824.92
11658.3
7335.83
2421.15
14267.8
8638.81
2892.55
6007.34
3356.85
943.029
7878.93
5220.08
1806.68
9526.65
6568.61
2266.01
11095.2
7223.93
2406.09
14105.3
8853.02
3092.57
7047.15
4070.3
1327.72
7539.9
5453.35
2066.13
9061.21
6691.2
2470.29
11275.5
7933.98
2851.2
14286
8988.03
3203.68
301.827
2036.39
2887.82
4153.39
2259.53
2577.34
5658.7
5348.59
586.221
1004.19
624.578
1041.76
485.647
1399.91
867.018
1835.74
3214.21
1572.19
4067.72
2357.01
2147.9
3745.69
3419.89
833.622
6247.12
1444.27
-2063.13
567.257
1712.51
1212.96
1143.63
985.218
9665.31
4295.87
2617.95
1584.33
9794.78
4460.16
3316.69
2017.71
9673.57
4788.23
4790.91
3278.97
3419.72
2405.53
1583.45
1508.01
12772.5
11319.4
5986.63
6195.02
13943.1
13058.7
6860.05
6898.43
5231.61
5366.15
10826.4
8994.64
3528.15
3698.89
1904.79
2203.41
4187.92
4160.26
2234.76
2415.64
3012.45
3265.25
1620.3
2057.65
4585.79
3111.61
4546.05
3115.01
7185.51
4097.97
6799.8
4319.64
2715.5
2237.35
2857.47
1997.75
1451.88
1365.63
1795.38
1158.13
11346.9
7617.74
5548.04
5465.29
11269.9
7846.39
5566.85
5440.98
11752.5
8263.81
5646.22
5310.84
14013.2
15353.7
12604.2
8289.02
4541.95
14557.3
13229.4
12080.6
9792.54
6071.47
13628
12127.7
9545.28
7209.05
4333.98
6219.06
5353.51
5671.54
6286.13
6501.9
5336.55
5770.3
6256.79
6928.81
5453.67
5895.75
6254.19
10981.5
7786.4
10023.7
6951.5
7717.81
6165.3
7050.29
5920.42
5514.72
6264.27
9135.23
7947.79
7918.89
6883.85
6613.04
5937.12
5671.64
5535.64
4318.2
5948.36
7074.72
4794.03
4689.7
2836.96
9403.34
7257.91
6511.31
5274.43
3749.85
2248.93
5450.82
3994.98
4698.92
2231.06
1678.38
960.52
5049.55
3671.54
1719.69
1429.85
4001.1
1771.87
1539.96
799.745
3015.82
2718.27
2538.07
3661.4
4207.21
3891.43
3226.06
4661.75
3084.12
1946.23
1859.4
2503.67
895.632
418.616
137.115
429.597
3657.38
1531.92
454.062
4135.19
1088.3
290.894
3754.11
1673.93
514.929
4156.27
1135.34
319.203
3610.47
1708.29
446.551
4142.89
1174.09
278.722
4870.85
2527.92
597.869
4229.31
2072.07
506.881
3980.38
1921.1
527.029
3799.24
1783.96
389.831
4179.3
1171.35
182.048
6078.36
3113.94
862.727
5287.12
2643.32
735.522
4650.16
2302.13
673.235
4247.46
1833.43
459.257
4545.1
1109.66
274.407
1629.85
574.113
123.416
-135.284
676.225
249.92
70.2515
-24.1885
1730.4
630.308
170.293
-76.399
865.331
347.656
166.866
75.7963
1850.92
696.415
250.608
17.8413
1466.65
655.875
237.207
47.3339
1099.35
588.033
174.875
-27.8898
999.347
622.019
330.363
180.598
1515.69
650.08
185.234
-138.171
1283.03
543.023
229.87
-129.268
1798.06
681.785
222.557
-82.4566
1613.17
613.781
243.78
-209.095
1200.63
591.014
216.358
-48.7729
973.979
469.569
239.059
1.52431
866.213
504.923
278.206
158.621
657.96
385.477
243.065
133.17
2062.84
694.798
131.393
-273.672
2011.65
637.607
191.588
-368.299
2060.16
704.072
148.036
-260.693
1948.15
619.348
197.469
-356.961
2019.44
704.315
215.269
-175.316
1823.09
585.743
235.155
-285.379
1770.98
648.553
284.2
3.33811
2000.04
653.982
322.843
-330.579
1569.71
575.434
278.692
-72.3889
1568.94
447.764
168.197
-242.369
619.155
162.501
45.0158
-46.9807
1624.05
476.689
182.731
-228.589
645.571
174.932
55.6148
-35.2001
1671.03
512.628
219.419
-197.524
665.798
190.947
69.2378
-22.2658
1513.95
483.076
248.417
-151.128
652.4
197.576
93.1932
0.933004
1390.95
478.718
261.551
-81.0455
590.463
208.071
123.85
31.5346
956.924
375.105
176.129
-27.1917
552.891
262.871
149.94
74.5805
1112.47
388.176
192.835
-62.033
562.772
233.658
138.111
53.9894
763.269
354.007
182.823
25.1967
487.106
268.71
157.168
94.4996
528.945
311.427
198.659
114.556
395.908
259.073
168.727
119.873
-12.7158
4.05632
4.13374
2.68274
1.89807
-2.1641
2.79761
2.28794
1.43824
1.00989
6.38907
13.3986
8.96863
5.38825
3.74001
18.2577
13.2608
7.82181
4.55915
3.13969
25.6147
23.8884
14.5838
8.57344
5.91747
71.9069
44.5818
25.1331
14.4753
9.9409
84.6154
51.9889
29.3518
16.9501
11.6598
123.647
68.8982