/*--------------------------------*- C++ -*----------------------------------*\
  =========                 |
  \\      /  F ield         | OpenFOAM: The Open Source CFD Toolbox
   \\    /   O peration     | Website:  https://openfoam.org
    \\  /    A nd           | Version:  11
     \\/     M anipulation  |
\*---------------------------------------------------------------------------*/
FoamFile
{
    format      ascii;
    class       volScalarField;
    location    "1.6";
    object      gradTx;
}
// * * * * * * * * * * * * * * * * * * * * * * * * * * * * * * * * * * * * * //

dimensions      [0 -1 0 1 0 0 0];

internalField   nonuniform List<scalar> 
5712
(
-6931.38
-8860.01
-16416.2
-24009.4
-24508.3
-42279.6
-18792.5
-47847.1
-15284.6
-33582.4
-22860.7
-34794.5
-20487.1
-26909.2
-9018.71
-10324
-15547.7
-17828
-20023.2
-19858.5
-15718.8
-19388.9
-23137.7
-20736.4
-5666.52
-4290.55
-7041.48
-4763.01
-13153.7
-10581.7
-22407
-16297.3
-17337.3
-18054.3
-19322.7
-18560.9
-6881.79
-5334.5
-40906.9
-54754.7
-26449.9
-32460.9
-54855.1
-71202.4
-28377.3
-32493.3
-30406.2
-42936.9
-26572.7
-35188.1
-15606.3
-25092.2
-3029.25
-1024.44
-3183.03
-1150.5
-9135.02
-3698.66
-12484.6
-4608.36
-8947.56
-3422.06
-9425.78
-3029.2
-16018
-5106.68
-20651.4
-6981.41
-24997.2
-12474.7
-22885
-13558.3
-23323.6
-15096.8
-20521.7
-15368.8
-18098.5
-10768.7
-18133.2
-9300.47
-23619.5
-15044.3
-23677.2
-15167.8
-21685.9
-16233.3
-21948.7
-16286.2
-19534.1
-12388
-20228
-12679.8
-18543.9
-8081.97
-8620.72
-10568.9
-18616.7
-8856.21
-7568.05
-10777.4
-19625.4
-8024.22
-9735.64
-10607
-20595.4
-8209.43
-10570.6
-11058.1
-3922.04
-4293.09
-1326.26
-2638.78
-11437.8
-12107.3
-4466.27
-8039.45
-14655.1
-16227.6
-7198.43
-12300.1
-12303.6
-833.008
-13929.3
-17431.8
-9604.66
-483.173
-7293.08
-12648.3
-20514.2
-14669
-10312.4
-12629.9
-11189.1
-9782.05
-15406.3
-3726.78
-3040.27
-2142.76
-2117.95
-10459.1
-8712
-6394.61
-6061.17
-13000.5
-10814.6
-8347.79
-7452.79
-5760.29
-7402.77
-12004.4
-12514.7
-14433.1
-13103.8
-16305.6
-14086
-11319.7
-9537.56
-9215.76
-9530.43
-12214.1
-9379.83
-11221.2
-7924.53
-9801.66
-6556.53
-11619.3
-7529.56
-10395.6
-4538.58
-8994.46
-9577.52
-12740.5
-16420.2
-14042.7
-20310.7
-7205.68
-7840.73
-9244.26
-2589.78
-8042.25
-15350.6
-7643.53
-16514.5
-13917.5
-25111.6
-14165.1
-26714.4
-6143.02
-13287.2
-5608.52
-14215.8
-8530.3
-6291.51
-11969.8
-4614.72
-8669.71
-1345.58
-10376.2
-431.133
-8235.6
-9574.77
-12557.9
-5742.91
-6843.75
-11338.6
-11143.6
-7570.43
-2376.39
-2068.29
-1806.26
-1714.68
-1554.31
-1365.2
-6990.31
-5597.57
-4745.14
-4553.39
-3563.17
-3025.41
-8426.57
-7107.82
-6493.36
-5456.91
-4321.35
-4025.77
-6389.06
-5497.97
-5306.75
-10809.4
-7953.53
-6583.61
-10363.3
-7407.23
-5873.96
-10839.5
-8318.69
-7123.25
-6988.37
-4459.22
-3400.82
-15540.1
-13099.9
-11109.5
-10146.4
-8211.3
-6626.37
-9193.99
-6918.63
-5334.91
-7869.03
-5496.39
-4059.53
-8337.79
-4528.92
-2445.41
-10613.2
-14321.3
-8439.3
-10846.4
-11559.1
-16911.1
-10365.5
-15002.6
-19.6294
-711.199
521.521
-104.036
-2973.84
-3327
-1249.35
-671.018
-714.347
-2413.89
-9517.39
-13834.8
-6664.62
-3735.26
-10147.5
-10076.8
-15766.9
-17373.4
613.629
4236.71
-7686.33
-7232.17
-7317.14
-5636.48
-1016.99
-534.135
-682.902
-288.17
-1957.79
-152.333
349.164
852.731
-9254.44
-2313.54
-6318.62
-1611.23
-9159.33
-2767.01
-11080.1
-3520.06
-9011.39
-12023.7
-8307.57
-11706.3
-14619.4
-15349.7
-13923.6
-14503.6
-5649.2
-9316.3
-6540.74
-9269.07
-8804.39
-11262.2
-9700.13
-11358.8
-14499
-14226
-15170.9
-14266.2
-5695.19
-9000.23
-6187.6
-9147.23
275.881
-1155.36
-7167.13
-4269.87
819.81
-751.208
-6640.07
-3760.73
-184.128
-1423.79
-7317.99
-4660.93
-623.218
-1684.89
-7336.28
-4810.82
712.028
814.375
-147.765
14.4742
2963.77
2975.28
270.745
457.398
696.494
2051.68
-1517.87
-835.289
10247.4
9743.71
5566.07
4320.58
566.412
10638.5
10765.2
4276.56
6336.11
978.464
-10483.2
-8113.85
-7040.99
-6453.35
-3716.44
799.805
716.505
67.1306
-13.1886
2537.58
2404.53
216.286
12.5911
2569.24
2989.59
-501.108
-739.588
5113.44
2199.71
8024.73
4882.18
3572.52
2627.03
4058.03
3427.52
-214.833
-1039.98
-3846.95
-2416.05
-1074.33
948.93
-936.156
755.979
-1498.36
-215.293
-1730.8
-1941.07
-5175.68
-4684.16
-9850.72
-5911.05
-8179.16
-8139.91
-12399.4
-9991.62
-7592.35
-4395.26
-3742.81
-3670.23
-11620.8
-5097.37
-12776.9
-5715.37
-13829.5
-10200.4
-14754.8
-10952.6
-9241.22
-3557.22
-10352.1
-4131.1
-5759.12
-4431.12
-4163.88
-6131.66
-3656.49
-4050.97
-3530.49
-5679.19
-6676.9
-4350.46
-4716.63
-7049.87
-8176.12
-4725.12
-6022.58
-7269.75
694.828
718.797
797.999
42.9485
253.903
280.212
2521.6
2602.26
2570.76
244.475
726.005
718.735
3225.24
3484.98
3525.42
-429.918
713.491
942.384
1109.12
931.477
628.708
3435.79
3457.64
3188.65
2790.23
3083.75
3003.49
3463.41
3614.35
3482.2
-1073.63
327.54
424.864
-3518.62
-2021.19
-1102.27
832.301
1828.57
2356.21
844.018
2083.08
2615.58
408.602
1723.82
2094.87
-1924.34
444.645
719.196
29.9585
33.7672
38.6139
56.8902
249.769
133.012
105.511
95.8594
20.4649
65.1929
147.555
214.951
406.576
242.031
265.531
266.107
-188.189
21.7182
213.445
389.112
153.995
191.273
233.754
252.519
30.9141
111.663
103.853
97.6686
-198.002
-12.6609
94.2007
153.637
-848.688
-181.573
53.4215
213.526
-1314.19
-309.918
-32.4588
380.16
-574.404
-76.6998
131.526
336.862
-1072.93
-234.469
-47.4465
326.964
-911.103
-216.532
82.6742
283.577
-1478.21
-369.02
-36.5726
450.4
-1017.82
-281.898
79.3755
344.281
-1594.27
-421.404
-55.2403
470.3
14.2663
20.4005
34.6258
72.8656
42.8551
29.3573
18.9471
66.0214
83.3094
70.8633
112.278
200.427
173.189
99.4004
62.4931
179.863
-340.968
-45.4243
114.619
337.183
-133.086
28.1224
76.7385
316.241
-36.4802
107.297
180.533
342.329
16.4782
88.8747
63.0502
318.424
-911.039
-177.58
-12.0332
441.4
83.6521
41.2231
26.6792
51.7635
150.846
59.9736
29.6676
24.9266
176.267
98.3502
55.3099
131.093
387.372
159.844
73.5259
63.5196
120.567
110.028
74.7098
214.381
497.074
225.179
110.589
99.5358
-47.6648
100.677
93.5135
298.852
406.588
243.707
130.102
125.217
-451.048
15.067
29.2229
278.551
147.878
209.575
115.1
125.461
-1055.61
-112.935
8.47323
317.856
-327.034
48.3336
65.5144
111.543
-800.651
-32.2014
19.5183
295.037
-172.538
120.834
93.6819
123.73
-1286.93
-207.706
-20.4977
345.478
-461.595
-20.1669
39.7988
103.479
-1458.6
-298.594
-59.1114
339.753
-581.354
-90.9225
6.81272
88.7687
24.8856
10.3697
4.95154
2.67592
1.7971
32.636
15.6585
7.99158
4.4328
3.00419
59.3809
23.9722
11.3613
6.13704
4.1235
73.153
34.7534
17.7283
9.85355
6.6874
78.7504
29.948
13.985
7.53255
5.05947
97.5107
45.6919
23.2891
12.9612
8.80397
50.5458
23.2177
11.781
6.56292
4.464
36.4532
13.7892
6.36187
3.42583
2.30719
77.8443
30.2486
14.3616
7.80476
5.2616
37.3907
12.5339
5.61562
2.99459
2.00667
82.2322
34.9468
17.3568
9.57841
6.48687
35.4481
12.4738
5.76435
3.10325
2.08553
60.2358
19.9396
8.7561
4.63197
3.09915
35.4122
11.1289
4.86329
2.57912
1.7281
53.2739
13.2178
4.67051
2.23684
1.44809
29.5016
6.32172
2.0513
0.948038
0.606782
20.9754
7.97926
3.69803
1.97657
1.32204
15.2814
6.3446
3.0744
1.66917
1.12149
51.3427
19.8873
9.41262
5.08521
3.4166
39.5241
16.6218
8.17525
4.47187
3.01514
71.9864
24.6362
11.2057
5.98375
4.00875
53.6073
22.8183
11.3624
6.25242
4.22799
63.8495
27.1415
13.6019
7.51307
5.08584
36.376
17.196
8.84355
4.91795
3.33707
32.7177
14.69
7.50362
4.16456
2.82305
-272.593
-421.868
-568.679
-1017.25
-485.935
-1242.19
131.143
-925.192
817.475
100.902
-605.619
-1149.01
522.617
429.455
-1126.19
-1846.02
-1488.1
-2150.79
-691.984
-162.132
-36.7418
-8.16004
-2.05888
-211.001
-101.374
-14.0818
-3.81435
-1.70675
-2124.25
-495.157
-112.592
-24.8814
-6.28648
-496.449
-138.007
-34.1702
-7.24698
-1.98429
-3556.16
-830.467
-189.357
-41.9891
-10.587
-797.287
-236.295
-58.1262
-13.6395
-3.46022
-4743.05
-1110.77
-254.348
-56.5845
-14.2874
-925.6
-297.24
-75.463
-17.8946
-4.52592
-5881.43
-1391
-320.788
-71.7424
-18.1954
-1022.14
-361.949
-94.5448
-22.6953
-5.80614
-6875.97
-1675.8
-391.942
-88.443
-22.5465
-1647.54
-511.192
-127.397
-29.5047
-7.45253
-6438.17
-1564.38
-364.268
-81.8417
-20.7918
-1249.68
-428.56
-110.498
-26.1554
-6.62046
-7065.07
-1723.6
-403.846
-91.2792
-23.3089
-1885.77
-563.807
-138.228
-31.5388
-7.94187
-7348.23
-1776.96
-416.864
-94.1756
-24.0355
-1964.64
-588.426
-145.454
-30.8413
-8.21166
-528.478
-7222.81
-6592.01
-2342.36
1697.44
2879.84
8005.32
11711.1
1795.11
8594.57
-1777.15
2573.43
2523.59
5053.55
9610.92
13626.8
14526.5
18257.3
5934.77
7690.65
-20023.2
-14391.6
-4431.72
-3357.56
-2398.09
-3390.71
-3244.44
-12179.6
-11329.7
-9777.22
-10329.4
-8359.09
-6030.15
-7986.77
-5149.06
-4364.31
-5248.82
-3602.51
-19793.6
-10100.4
-3431.14
-5902.35
-8201.29
-5662.66
-6085.27
-4493.71
-2667.04
-3757.86
-4071.02
-4418.02
-19659.2
-12783.9
-12091.2
-8673.23
-8514.09
-9038.12
-3702.24
-4833.08
-6306.49
-14033.6
-11899.6
-9734.57
-8688.92
-7177.13
-9273.13
-6283.33
-4763.69
-3538.21
-1758.64
-3893.79
-3209.12
-2388.45
-1479.04
-503.91
-2988.63
-2491.62
-1866.39
-1155.27
-391.493
-2123.22
-1758.04
-1307.05
-803.795
-271.298
-3023.85
-2523.96
-1890.19
-1168.14
-395.092
-2869.07
-2374.59
-1767.15
-1089.12
-368.426
-7711.46
-5781.33
-4404.88
-3930.54
-4075.14
-6103.15
-4396.85
-3050.05
-2458.94
-1679.25
-6088.56
-3653.56
-2489.85
-1685.15
-784.317
-5269.74
-3499.54
-2282.5
-1615.47
-928.39
-3889.58
-2406.14
-1475.99
-994.888
-476.195
-4748.6
-3523.26
-2413.29
-1429.43
-488.097
-5430.95
-3491.9
-2268.21
-1341.96
-493.626
-3377.83
-2028.89
-1216.59
-656.996
-219.996
-3580.17
-2747.29
-1921.03
-1141.43
-383.209
-4173.18
-3100.18
-2101.8
-1217.69
-402.791
-2988.4
-2313.71
-1624.23
-962.624
-320.569
-12916.7
-9660.11
-7595.74
-6508.69
-5941.68
-7379.99
-5297.12
-3814.14
-2532.4
-1109.59
-2840.18
-2207.14
-1568.1
-948.584
-324.812
-4968.24
-3937.95
-2856.78
-1761.72
-613.441
-6671.44
-5185.71
-3766.88
-2388.06
-890.787
-4786.52
-3822.15
-2802.25
-1748.93
-615.129
-5233.6
-4239.75
-3131.37
-1949.39
-676.06
-3889.17
-3157.37
-2323.1
-1431.56
-488.767
-2290.43
-1836.03
-1327.28
-801.769
-268.913
-3295.61
-2702.62
-1994.39
-1222.1
-412.478
-3446.7
-2729.65
-1960.52
-1185.53
-400.679
-3806.71
-3072.86
-2246.39
-1376.05
-467.977
-13465.7
-10931.8
-8887.13
-7636.56
-6373.24
-8796.3
-6226.59
-4692.5
-3379.2
-1668.03
-8815.39
-6881.82
-5125.7
-3680.54
-1737.95
-6762.83
-5073.93
-3754.54
-2502.73
-1000.13
-7046.17
-5576.02
-4110.11
-2628.35
-974.366
-6992.18
-5208.76
-3830.2
-2541.42
-1002.8
-3156.86
-2531.67
-1852.04
-1145.3
-396.131
-4240.11
-3483.23
-2579.74
-1588.44
-538.357
-5393.78
-4340.65
-3186.3
-1974.65
-682.597
-5862.55
-11966.7
-12409.6
-34116.2
-12180
-45492.2
-6666.9
-16206.3
-12189.7
-9385.79
-20341.7
-16918
-12094.5
-11305.2
-22736.7
-17909.8
-4323.86
-3220.64
-8398.42
-5790.74
-9681.16
-7302.2
-26071.5
-19316.9
-15922.5
-12033.2
-16387.2
-9722.73
-1221.62
-3951.3
-42363.2
-55357.8
-25562.9
-32314.3
-55814.8
-71603.7
-27397.1
-32258.2
-31641
-43575.5
-25763.3
-35137.9
-17195.5
-25852.7
-2079.08
-550.116
-3662.31
-1251.19
-7070.51
-3171.31
-14367.6
-5197.93
-3095.1
-1767.12
-7753.33
-2443.31
-16042.9
-5048.77
-20842.6
-7033.55
-17077.1
-8889.14
-19776.3
-11732.9
-15431.5
-11069.3
-17428
-13445.7
-15902
-9309.22
-12553.1
-6529.41
-22421.8
-14226
-23378.7
-14944.6
-20454
-15398.5
-21619.1
-16059.6
-18730.7
-11717
-20039.5
-12494.9
-17498.4
-7770.83
-7654.59
-10171.7
-15645.2
-7958.93
-5766.88
-10041.7
-19354.3
-7946.52
-9287.03
-10414.6
-20567
-8203.37
-10444.8
-11002.9
-1194.03
-1084.15
-294.358
-1315
-4854.87
-5049.91
-3068.67
-6147.17
-2769.3
-3451.13
-4803.04
-9107.65
-12315.6
-9691.89
-9711.67
-12238
-8183.66
-7589.49
-8233.35
-7232.95
-14206.1
-12620.3
-11921
-10136.7
-7170.07
-6239.67
-13676.1
-1174.79
-879.221
-663.657
-745.645
-4526.85
-3579.93
-3869.07
-3411.94
-707.394
480.882
-4587.13
-3607.61
-10182.3
-10813.7
-9553.81
-8764.93
-7308.97
-5308.87
-9632.22
-7650.44
-8835.62
-6920.08
-11725.7
-11812
-10126.5
-7762.88
-7580.48
-5021.14
-6770.45
-4187.07
-10276.4
-6191.59
-9442.52
-4951.49
-8450.13
-9534.12
-13197.5
-17460.5
-13935.1
-20320.6
-6549.17
-7683.97
-7907.28
-2736.39
-7821.07
-15234.3
-7585.46
-16465.3
-13804.8
-25222
-14124.4
-26698.3
-5878.56
-13148.9
-5540.85
-14169.8
-8065.3
-6229.57
-11797.1
-4689.34
-7706.62
-1661.22
-10137
-1109.05
-8043.81
-9498.82
-12477.7
-5751.24
-6790.16
-11310.6
-11120
-7563.3
-859.223
-796.281
-597.459
-689.154
-2726.2
-1997.24
-2497.58
-2275.28
1059.94
532.56
-2921.25
-3224.27
-10673
-10058.9
-7797.22
-6656.25
-4229.12
-3522.63
-6012.1
-4934.77
-5826.72
-4235.81
-18328.4
-15886.7
-8110.38
-6772.45
-6277.28
-4654.92
-5276.79
-3286.98
-5726.65
-2396.68
-5635.41
-9280.56
-4913.74
-9458.81
-8542.73
-10614.7
-9629.53
-13104.2
-971.316
-681.904
-724.594
-601.4
-3609.42
-2514.53
-2912.1
-1553.49
-1257.96
-1566.52
-8321.07
-8906.6
-4608.83
-4136.56
-9505.16
-9908.98
-14831.3
-17102.9
464.614
4090.16
-7358.12
-7186.11
-7142.13
-5646.86
-1030.06
-917.718
-1118.9
-911.635
-1624.71
-1031.19
-476.593
-373.019
-8013.49
-3555.83
-6806.7
-2963.41
-9317.27
-3567.41
-11146.5
-3842.89
-5347.25
-10256.1
-7015.64
-10751.2
-8807.62
-11872
-11656.1
-12877.4
-5128.43
-9048.05
-4603.94
-9002.59
-8251.51
-10856.2
-9534.41
-11249.6
-13532.9
-13538.2
-14893.3
-14079.8
-5525.71
-8899.76
-6145.02
-9126.45
-221.012
-1884.05
-7518.6
-4853.96
-197.161
-1946.44
-7447.06
-4643.85
-551.859
-1933.08
-7506.15
-5014.67
-773.74
-1889.01
-7391.35
-4931.71
-1026.99
-1114.68
-947.434
-1006.19
-1966.12
-1988.66
-1274.98
-1354.11
-8179.32
-7442.46
-3598.5
-3561.16
-3586.53
-5086.31
-3870.08
-26.9183
-1510.39
-1157.12
-1291.25
-3548.08
2796.12
-568.32
-14046.3
-11735.5
-10377.2
-8805.05
-5212.68
-1111.21
-985.24
-1121.09
-1362.91
-1952.56
-1518.7
-1732.12
-2288.89
-7707.36
-7504.59
-3931.33
-5015.78
-4966.58
-6659.5
-3042.86
-4972.42
-4669.77
-5076.19
-918.797
-1309.22
-2452.18
-3705.41
-9684.75
-7888.63
-7492.35
-5450.34
-6370.35
-4504.71
-5452.07
-3884.1
-3735.96
-4047.47
-8141.39
-7993.81
-11027.1
-7077.43
-10395.6
-11085.1
-13049.1
-10945.8
-9020.36
-5512.41
-6579.82
-6519.88
-12060.9
-5811.73
-12886
-5884.72
-13978.4
-10804.9
-14777
-11077.7
-9881.64
-4249.01
-10528.8
-4311.75
-7106.24
-5424.05
-5334.25
-7225.02
-6036.33
-6311.17
-5252.82
-7503.72
-7369.03
-4993.12
-5372.76
-7738.89
-8389.73
-4924.13
-6233.22
-7464.39
-775.659
-673.049
-980.104
-737.427
-1314.1
-1583.02
-1412.01
-1074.85
-7264.56
-6363.33
-3313.17
-1497.99
-7802.57
-7364.03
-5985.49
-5357.94
-4897.42
-4209.21
-1678.12
-1766.27
-3525.21
-1634.47
-8585.8
-7318.03
-4789.3
-3841.02
-3630.31
-2394.21
-2562.06
-1231.27
-3644.01
-92.0524
-200.4
-89.3632
-30.9764
16.8471
-178.781
-107.884
-30.5464
16.5269
-544.296
-234.542
-3.38581
136.745
-472.632
-263.527
-11.9677
104.542
-901.233
-351.956
33.8929
314.407
-870.546
-410.793
-126.009
21.8434
-605.648
-277.85
-133.533
-41.8937
-474.912
-188.146
-13.2824
88.5333
-1365.47
-471.322
-125.276
92.4507
-1620.67
-460.334
-113.022
363.974
-1302.03
-448.146
-78.3622
203.469
-1468.22
-412.638
-137.268
324.721
-1283.23
-436.698
-46.1639
213.365
-1683.01
-476.183
-99.7864
427.508
-1169.6
-374.793
24.2418
313.432
-1668.77
-462.067
-79.5605
461.63
-187.73
-74.4046
-11.9534
53.4233
-161.223
-56.4118
-25.8562
49.6882
-483.418
-193.519
-14.8934
142.337
-404.591
-147.439
-65.2125
129.865
-965.5
-331.209
-14.9471
298.152
-874.952
-286.166
-82.3668
267.555
-1067.73
-382.233
-66.3888
227.918
-805.741
-267.461
-105.868
297.632
-1475.29
-410.162
-121.945
466.874
-116.986
-41.9462
-12.4904
33.909
-54.7936
-28.5427
-11.4956
0.85173
-352.212
-121.469
-55.15
78.3585
-179.64
-85.2173
-43.4743
-4.48008
-626.244
-203.045
-84.8803
140.438
-362.458
-149.808
-67.6296
-2.87493
-952.773
-292.816
-106.149
214.847
-630.786
-221.512
-90.091
1.00245
-1255.19
-353.627
-175.295
174.841
-846.562
-267.608
-123.548
-15.5451
-1673.94
-459.135
-189.929
216.429
-836.755
-250.943
-104.08
6.82361
-1612.47
-448.331
-213.068
176.585
-925.619
-278.198
-119.874
-8.21052
-1656.75
-426.043
-148.417
281.828
-752.149
-204.83
-66.5923
40.4514
-1578.86
-371.759
-102.513
318.1
-671.2
-150.338
-27.8928
68.3469
-2.34033
-5.70436
-3.96552
-2.4409
-1.71748
-16.2103
-11.7819
-7.03119
-4.15955
-2.89368
-3.83704
-13.1582
-9.19212
-5.65064
-3.97257
-35.4977
-26.3447
-15.7504
-9.30527
-6.46724
1.27889
-15.8008
-11.3214
-6.97737
-4.90619
-47.266
-35.0679
-20.8652
-12.2957
-8.5371
-23.457
-17.7744
-10.6186
-6.25534
-4.33989
-1.3908
-7.22596
-5.13849
-3.16121
-2.21903
-7.77496
-17.8083
-11.9587
-7.25761
-5.08108
5.36392
-5.725
-4.41608
-2.75128
-1.94
-26.9698
-25.1799
-15.3406
-9.09049
-6.32344
1.29379
-6.72055
-4.73037
-2.89717
-2.03329
10.9256
-8.06256
-6.63996
-4.19179
-2.96327
7.55277
-4.5748
-3.7416
-2.34844
-1.65732
30.8628
0.452389
-2.35864
-1.7949
-1.32228
20.2362
1.012
-0.872272
-0.728491
-0.544857
1.59375
-3.81595
-2.85943
-1.78463
-1.26042
-2.90137
-3.92774
-2.52216
-1.522
-1.06587
-1.78214
-11.2173
-7.69175
-4.69694
-3.2954
-11.2755
-11.4187
-7.00592
-4.17124
-2.90751
11.6971
-11.7028
-8.87132
-5.51346
-3.88339
-19.7319
-16.9137
-10.0601
-5.93683
-4.12507
-24.9843
-20.8845
-12.3349
-7.26257
-5.04581
-24.1944
-14.5591
-8.16528
-4.74757
-3.28537
-18.7645
-12.3924
-7.05244
-4.12042
-2.85736
-38.1657
-198.68
-38.1259
-500.991
71.068
-680.162
417.44
-580.724
721.386
30.0373
-720.824
-1262.31
274.166
73.1645
-1176.95
-1883.98
-1501.06
-2158.79
-650.57
-154.784
-35.2645
-7.85199
-1.98426
-167.282
-93.8026
-13.0582
-3.63368
-1.64721
-2009.49
-474.044
-108.274
-23.9789
-6.06678
-398.731
-123.38
-31.9305
-6.92468
-1.92428
-3382.02
-797.284
-182.491
-40.5471
-10.2368
-692.89
-219.709
-55.4584
-13.1929
-3.37525
-4547.3
-1071.42
-246.022
-54.8184
-13.8575
-870.44
-286.773
-73.526
-17.5244
-4.45025
-5708.84
-1352.22
-312.158
-69.8653
-17.7327
-1040.4
-360.598
-93.7421
-22.4623
-5.74761
-6803.86
-1654.98
-386.692
-87.2181
-22.2312
-1669.08
-513.6
-127.535
-29.4735
-7.43558
-6327.08
-1533.85
-356.926
-80.1859
-20.3765
-1296.63
-432.332
-110.57
-26.0748
-6.59183
-7025.29
-1711.85
-400.788
-90.5483
-23.117
-1891.62
-564.317
-138.197
-31.51
-7.93125
-7335.33
-1773.15
-415.853
-93.9306
-23.9707
-1965.1
-588.327
-145.4
-30.8311
-8.20772
-508.631
-7119.59
-6263.65
-2205.97
-1590.05
-908.524
-3725.41
-2653.39
-6605.84
-6158.87
-3161.13
-2363.22
-319.505
-496.972
-865.136
-1424.62
-2167.43
-3038.24
-233.052
-508.595
-1069.06
-1884.63
-2880.82
-3930.35
-241.485
-111.221
-420.396
-286.321
-783.997
-646.5
-1327.07
-1225.11
-1937.24
-1850.8
-2587.27
-2315.58
-3832.54
-4406.25
-4878.01
-7420.74
-8431.32
-9363.4
-4846.24
-5412.96
-5463.26
-5054.21
-4388.33
-3881.31
-288.385
-244.042
-185.136
-115.47
-39.2271
-448.2
-378.917
-287.18
-178.983
-60.7796
-779.465
-658.224
-498.322
-310.328
-105.34
-1281.79
-1080.75
-817.041
-508.309
-172.464
-1946.06
-1637.1
-1235.21
-767.52
-260.283
-2718.67
-2279.02
-1714.76
-1063.94
-360.69
-210.256
-177.827
-134.83
-84.0581
-28.5495
-458.404
-387.271
-293.313
-182.715
-62.0314
-962.61
-812.336
-614.627
-382.604
-129.85
-1694.54
-1427.76
-1078.77
-670.927
-227.616
-2584.68
-2172.78
-1638.58
-1017.98
-345.226
-3515.09
-2945.39
-2215.8
-1375.01
-466.247
-218.024
-184.563
-140.06
-87.3775
-29.6873
-100.425
-85.0213
-64.5268
-40.2582
-13.6786
-379.3
-320.827
-243.27
-151.669
-51.5133
-258.397
-218.626
-165.821
-103.404
-35.124
-706.769
-597.227
-452.416
-281.859
-95.6953
-583.005
-492.825
-373.455
-232.72
-79.0205
-1194.8
-1008.11
-762.582
-474.6
-161.05
-1103.26
-931.079
-704.421
-438.428
-148.774
-1740.62
-1465.29
-1106.1
-687.394
-233.102
-1663.25
-1400.27
-1056.92
-656.684
-222.641
-2316.07
-1941.9
-1460.83
-905.924
-306.965
-2073.12
-1737.89
-1306.55
-809.518
-274.093
-3410.2
-2843.35
-2131.51
-1321.03
-448.161
-3882.64
-3209.89
-2395.23
-1485.27
-505.969
-4223.12
-3444.13
-2556.9
-1594.55
-551.107
-6212.09
-4959.97
-3675.17
-2342.44
-849.729
-6657.96
-5158.33
-3836.7
-2556.84
-1032.13
-7074.82
-5371.27
-4010.62
-2763.8
-1202.55
-4314.04
-3598.86
-2699.46
-1673.8
-567.925
-4785.4
-3967.97
-2966.5
-1839.85
-625.826
-4778.76
-3928.98
-2927.25
-1820.47
-623.527
-4341.35
-3524.03
-2617.72
-1642.41
-573.187
-3639.32
-2891.07
-2144.82
-1376.73
-504.767
-3099.38
-2407.83
-1786.05
-1176.93
-455.792
-334.602
-544.408
-950.98
-1558.1
-2360.64
-3286.66
-253.674
-573.447
-1185.47
-2059.06
-3108.67
-4184.09
-255.473
-122.681
-465.086
-324.231
-867.237
-721.507
-1462.09
-1354.59
-2146.69
-2092.18
-2872.85
-2696.46
-4104.41
-4672.17
-5132.14
-7590.05
-8510.92
-9387.9
-5076.49
-5567.81
-5517.72
-5019.22
-4317.16
-3846.73
-302.102
-255.748
-194.095
-121.098
-41.1467
-491.331
-415.752
-315.395
-196.721
-66.8323
-857.627
-725.089
-549.631
-342.632
-116.372
-1403.6
-1185.24
-897.459
-559.064
-189.821
-2122.96
-1789.47
-1352.96
-842.082
-285.831
-2947.46
-2477.46
-1869.21
-1162.33
-394.518
-228.988
-193.807
-147.056
-91.7369
-31.1682
-517.365
-437.617
-331.873
-206.954
-70.3018
-1068.61
-903.027
-684.226
-426.427
-144.817
-1853.76
-1564.37
-1183.94
-737.316
-250.322
-2793.4
-2352.66
-1777.68
-1106.12
-375.437
-3748.89
-3148.29
-2373.84
-1475.75
-500.898
-230.727
-195.393
-148.341
-92.576
-31.4597
-110.824
-93.8792
-71.2934
-44.5026
-15.125
-419.909
-355.48
-269.79
-168.33
-57.196
-292.825
-247.984
-188.273
-117.5
-39.9303
-782.514
-661.977
-502.064
-313.098
-106.36
-651.244
-551.142
-418.157
-260.839
-88.6187
-1317.99
-1113.75
-843.858
-525.879
-178.582
-1221.51
-1032.61
-782.628
-487.819
-165.671
-1932.27
-1630.22
-1233.44
-767.978
-260.701
-1884.1
-1590.34
-1203.69
-749.564
-254.453
-2578.98
-2169.79
-1638.08
-1018.75
-345.734
-2422.83
-2040.1
-1540.87
-958.296
-325.146
-3663.23
-3065.46
-2306.49
-1433.6
-487.104
-4134.72
-3435.61
-2576.54
-1603.84
-547.442
-4471.37
-3673.02
-2745.9
-1721.18
-596.282
-6398.41
-5148.55
-3844.17
-2464.5
-896.692
-6765.47
-5277.38
-3951.96
-2647.78
-1071.83
-7113.35
-5415.67
-4055.26
-2800.71
-1219.6
-4528.49
-3787.3
-2848.11
-1769.55
-601.071
-4933.35
-4101.64
-3074.85
-1911.23
-650.894
-4837.02
-3987.47
-2979.19
-1857.2
-637.05
-4319.25
-3514.36
-2617.96
-1647.32
-576.267
-3583.23
-2850.44
-2119.98
-1365.67
-502.772
-3071.52
-2386.8
-1772.43
-1170.33
-454.392
-19972
-14446.5
-4802.91
-3744.55
-2868.29
-3960.22
-3725.16
-13016.9
-14500.6
-11439.4
-13185.1
-7640.99
-11058.3
-5796.87
-6070.47
-4393.62
-20528.5
-11157.7
-4182.63
-6843.89
-9079.07
-6186.99
-6743.68
-5086.83
-3109.31
-4440.44
-5045.88
-5154.62
-19564.4
-12981.1
-12759.9
-9070.25
-8977.32
-9587.16
-4382.03
-5479.74
-6961.31
-14051.5
-11971.7
-9841.77
-8831.84
-7309.06
-9362.56
-6375.19
-4851.88
-3610.93
-1789.99
-4247.47
-3527.42
-2645.19
-1647.44
-562.916
-3347.91
-2806.04
-2113.28
-1313.64
-446.168
-2562.06
-2144.32
-1611.98
-1000.16
-339.224
-3550.25
-2982.4
-2248.45
-1397.05
-473.926
-3320.08
-2773.72
-2083.71
-1293.66
-439.308
-9397.55
-7690.58
-6203.92
-5416.84
-5133.91
-10651.1
-9046.55
-7195.1
-5617.35
-3233.16
-8190.75
-5723.47
-4250.09
-2900.41
-1225.01
-9683.7
-7889.52
-6092.12
-4385.86
-2070.27
-6429.21
-5124.94
-3753.77
-2327.67
-805.993
-8632.27
-6404.71
-4635.55
-2910.19
-1052.02
-5000.77
-4059.1
-2995.01
-1851.65
-633.049
-5215.94
-4219.9
-3107.69
-1920.87
-657.369
-3824.84
-3126.3
-2313.6
-1428.41
-485.986
-14264.2
-11228.4
-9128.66
-7807.93
-6836.62
-8613.17
-6540.81
-4903.96
-3305.38
-1414.67
-3598.56
-2919.77
-2160.39
-1344.49
-465.108
-5907.98
-4816.81
-3586.96
-2251.36
-788.198
-7606.53
-6101.24
-4555.76
-2935.77
-1095.52
-5318.98
-4328.32
-3229.51
-2039.85
-720.489
-5872.79
-4824.99
-3610.8
-2268.25
-789.238
-4464.12
-3682.88
-2752.15
-1715.31
-588.691
-2738.44
-2261.5
-1684.56
-1041.93
-353.945
-3943.36
-3282.78
-2459.66
-1525.34
-518.122
-4402.66
-3609.2
-2680.33
-1661.4
-567.957
-4523.09
-3729.01
-2782.4
-1730.28
-592.561
-13601
-11208
-9248.53
-8043.35
-6773.78
-9076.6
-6516.07
-4964.88
-3595.47
-1764.26
-9728.76
-7835.23
-6014
-4365.13
-2044.99
-7214.96
-5534.71
-4168
-2804.61
-1116.57
-7548.8
-6078.44
-4552.82
-2942.85
-1094.49
-7623.48
-5839.8
-4394.46
-2950.31
-1163.16
-3813.74
-3129.75
-2338.71
-1466.69
-509.477
-4854.44
-4034.1
-3022.09
-1877.11
-639.033
-6044.29
-4948.48
-3692.15
-2314.61
-803.924
-448.487
-1287.9
-2069.72
-2824.38
-3550.83
-4235.08
-2745.98
-7360.93
-6948.73
-2670.72
-9324.44
-7836.02
-9256.91
-10226.5
-2499.53
-1610.51
-5808.82
-3320.49
-10962.4
-7833.84
294.793
-2220.64
-6114.19
-5684.29
-2141.41
-7900.5
-6350.72
-7725.9
-8663.34
-2067.34
-937.972
-4995.93
-1697.81
-9020.47
-4670.72
1716.91
-1611.28
-4617.14
-4271.08
-1555.21
-6196.26
-3746.49
-6211.23
-6829.44
-1550.91
-856.163
-3517.01
-1777.94
-7134.36
-1771.32
1861.64
-1174.23
-3540.72
-3334.17
-1172.78
-4692.05
-2219.36
-5106.09
-5959.93
-1157.87
-904.556
-2558.98
-1809.36
-6225.26
-290.034
1401.7
-939.667
-2977.04
-2844.69
-978.72
-3727.41
-1817.02
-4540.49
-5751.71
-908.108
-991.879
-1819.3
-1746.81
-5403.4
-79.8463
186.84
-823.945
-2635.2
-2595.53
-880.293
-3430.3
-2098.05
-4179.93
-5483.67
-694.187
-778.495
-1482.33
-1705.44
-5321.74
-949.967
-488.042
-1397.69
-3409.1
-5071.72
-1965.25
-5514.56
-9668.29
-7408.62
-10659.4
-993.18
-682.328
-3855.47
-2317.94
-1083.29
-9158.11
-4731.9
-1297.91
-3172.26
-4444.1
-1703.11
-5086.39
-8718.56
-6668.2
-9043.52
-1013.43
-596.109
-3982.39
-2176.78
-263.062
-8963.32
-3510.77
-1136.81
-2788.18
-3622.23
-1361.27
-4615.05
-7751.38
-5648.04
-7909.73
-894.045
-683.721
-3383.24
-2256.29
-496.93
-7187.34
-3330.15
-977.31
-2502.43
-2985.99
-1097.96
-4286.99
-6991.93
-5000.4
-7141.58
-814.802
-684.776
-3106.92
-2326.52
-333.359
-6624.35
-3325.75
-879.22
-2243.82
-2637.59
-954.952
-3874.41
-6383.04
-4541.18
-6761.33
-759.017
-738.235
-2806.57
-2510.79
-496.522
-6323.97
-3374.45
-814.148
-1997.67
-2437.62
-875.306
-3568.13
-6291.1
-4203.79
-6525.26
-787.1
-860.938
-2494.68
-2390.79
-759.675
-6463.71
-3741.69
6302.77
7958.59
16453.9
24089.3
24540.3
42264.3
18801.4
47850.2
15298.1
33588.4
22907.5
34796.9
20503
26995
7753.45
8802.66
15560.8
17831
20018.1
19855.9
15720.4
19386.7
23134.9
20733.3
5226.08
3993.12
6406.9
4348.41
13155.5
10553.3
22459.1
16321.5
17313.1
18059
19314.4
18561.7
6880.27
5312.43
40912.7
54761.9
26450.5
32463
54862.1
71210.6
28377.2
32494.3
30410.5
42943.1
26572.3
35191
15612.3
25097.8
2857.56
982.765
2925.4
1069.3
9105.23
3684.29
12490.2
4609.62
8941.91
3418.7
9412.6
3024.06
16018.9
5106.69
20654.4
6982.4
24996.9
12473.7
22883.5
13557
23320.9
15094.5
20519.1
15366.7
18095.9
10767.5
18132.4
9299.38
23619
15043.4
23677.2
15167
21684.5
16231.7
21947.9
16284.9
19533.6
12387.3
20228.5
12679.2
18540.1
8080.71
8619.44
10568.8
18613.9
8854.97
7566.58
10777.1
19625.3
8024.26
9735.08
10607.1
20596.7
8209.98
10570.3
11058.4
3686.93
3990.76
1273.78
2479.96
11385.2
12062.7
4441.47
8002.98
14646.2
16218.1
7194.28
12293.1
12303.7
833.89
13928.4
17428.3
9603.07
484.131
7293.34
12647.6
20510.1
14666.5
10311
12628.9
11187.7
9779.86
15405.6
3397.95
2742.6
1930.28
1934.61
10487.7
8737.15
6454.64
6099.04
12993
10811.8
8344.78
7452.05
5760.46
7402.69
12004.3
12514.4
14431.9
13102.8
16301.9
14084.1
11318.5
9537.41
9215.11
9530.12
12213.5
9379.59
11220.3
7924.09
9800.2
6555.92
11619
7529.69
10395
4538.49
8993.6
9577.25
12739.4
16419.5
14041.3
20309.8
7205.05
7840.66
9243.64
2589.74
8041.46
15350.3
7642.77
16514.3
13916.2
25110.7
14164
26713.5
6142.5
13287.3
5608.03
14215.9
8530.04
6291.6
11970.2
4614.95
8669.17
1345.6
10376.4
431.411
8235.53
9574.96
12558.4
5743.15
6843.64
11338.9
11144.1
7570.74
2107.08
1850.74
1642.79
1564.47
1429.6
1269.04
7022.44
5609.91
4745.83
4586.92
3578.22
3028.82
8427
7109.01
6494.35
5458.01
4323.9
4028.31
6389.07
5498.14
5306.96
10809.2
7953.74
6583.91
10363
7407.51
5874.39
10839.3
8319.47
7124.18
6988.84
4460.41
3402.16
15539.9
13100
11109.9
10146.3
8211.37
6626.61
9193.83
6918.76
5335.22
7868.9
5496.6
4059.92
8337.89
4529.24
2445.87
10586.9
14304.7
8410.56
10832
11546.8
16901.8
10350.7
14994.3
61.3414
618.158
-435.828
61.8909
2973.01
3401.05
1249.86
750.958
688.593
2387.87
9500.73
13814.1
6647.11
3721.99
10140.2
10073.5
15762.6
17371.4
-619.639
-4238.64
7676.74
7227.71
7311.6
5634.36
887.839
485.198
578.472
249.905
2013.29
163.604
-288.465
-836.375
9243.37
2312.07
6311.92
1611.29
9152.48
2765.39
11076.6
3518.94
9001.29
12018.5
8299.63
11702.2
14612.4
15345.7
13918.2
14500.3
5642
9312.43
6531.9
9264.45
8799.53
11259.3
9697.47
11356.8
14495.6
14223.7
15168.8
14264.5
5690.7
8997.47
6185.22
9145.37
-279.721
1154.84
7164.35
4268.81
-824.243
750.521
6637.04
3759.66
181.185
1423.06
7315.81
4659.95
621.646
1684.38
7334.78
4810.06
-675.277
-767.176
134.634
-20.2353
-2938.81
-2949.57
-266.462
-447.353
-695.077
-2050.12
1517.53
835.17
-10247.3
-9742.86
-5566.35
-4320.72
-566.474
-10637.4
-10763.9
-4276.48
-6334.82
-978.297
10481.1
8110.71
7037.87
6450.87
3715.43
-763.717
-679.884
-83.1057
-7.18094
-2510.47
-2381.9
-195.671
6.01101
-2567.63
-2987.33
501.011
739.228
-5113.22
-2199.73
-8024.42
-4882.11
-3572.8
-2627.1
-4057.44
-3426.73
214.65
1039.64
3845.96
2415.68
1072.93
-949.327
934.928
-756.271
1497.56
215.14
1730.31
1940.66
5173.49
4683.11
9848.41
5909.85
8177.4
8138.99
12397.4
9990.51
7590.23
4394.2
3740.86
3669.27
11618.9
5096.32
12775.4
5714.5
13827.9
10199.4
14753.4
10951.7
9239.45
3556.31
10350.7
4130.36
5757.54
4430.19
4162.95
6130.73
3655.03
4050.12
3529.63
5678.29
6675.56
4349.6
4715.77
7048.92
8174.97
4724.39
6021.79
7268.91
-661.451
-670.265
-742.766
-61.751
-250.299
-272.01
-2498.74
-2589.54
-2561.93
-223.458
-714.63
-710.914
-3222.72
-3482.75
-3523.86
429.036
-713.08
-942.084
-1109.08
-931.368
-628.6
-3435.74
-3457.46
-3188.47
-2790.05
-3083.42
-3003.19
-3462.46
-3613.28
-3481.29
1073.14
-327.496
-424.723
3518.38
2021.25
1102.44
-832.453
-1828.43
-2355.99
-844.079
-2082.84
-2615.29
-408.538
-1723.48
-2094.49
1923.93
-444.66
-719.126
-25.1527
-29.7587
-34.5129
-50.9555
-232.616
-123.287
-97.7943
-88.3337
-20.0489
-65.0274
-147.827
-215.897
-402.262
-240.432
-264.294
-265.26
188.286
-21.5988
-213.289
-388.904
-153.338
-190.977
-233.576
-252.366
-30.9179
-111.617
-103.808
-97.6209
197.958
12.6787
-94.172
-153.605
848.678
181.668
-53.3228
-213.415
1314
309.933
32.5143
-380.06
574.342
76.7861
-131.408
-336.701
1072.76
234.497
47.5066
-326.856
910.999
216.579
-82.6037
-283.497
1478.01
369.025