/*--------------------------------*- C++ -*----------------------------------*\
  =========                 |
  \\      /  F ield         | OpenFOAM: The Open Source CFD Toolbox
   \\    /   O peration     | Website:  https://openfoam.org
    \\  /    A nd           | Version:  11
     \\/     M anipulation  |
\*---------------------------------------------------------------------------*/
FoamFile
{
    format      ascii;
    class       volScalarField;
    location    "0.5";
    object      epsilon;
}
// * * * * * * * * * * * * * * * * * * * * * * * * * * * * * * * * * * * * * //

dimensions      [0 2 -3 0 0 0 0];

internalField   nonuniform List<scalar> 
700
(
0.00193787
0.00193787
0.00193787
0.00193787
0.00193787
0.00193787
0.00193787
0.00193787
0.00193787
0.00193787
0.00193787
0.00193787
0.00193787
0.00193787
0.00193787
0.00193787
0.00193787
0.00193787
0.00193787
0.00193787
0.00193787
0.00193787
0.00193787
0.00193787
0.00193787
0.00193787
0.00193787
0.00193787
0.00193787
0.00193787
0.00193787
0.00193787
0.00193787
0.00193787
0.00193787
0.00193787
0.00193787
0.00193787
0.00193787
0.00193787
0.00193787
0.00193787
0.00193787
0.00193787
0.00193787
0.00193787
0.00193787
0.00193787
0.00193787
0.00193787
0.00193787
0.00193787
0.00193787
0.00193787
0.00193787
0.00193787
0.00193787
0.00193787
0.00193787
0.00193787
0.00193787
0.00193787
0.00193787
0.00193787
0.00193787
0.00193787
0.00193787
0.00193787
0.00193787
0.00193787
0.00193787
0.00193787
0.00193787
0.00193787
0.00193787
0.00193787
0.00193787
0.00193787
0.00193787
0.00193787
0.00193788
0.00193787
0.00193787
0.00193787
0.00193787
0.00193787
0.00193787
0.00193787
0.00193787
0.00193786
0.00193977
0.00193802
0.00193787
0.00193787
0.00193787
0.00193787
0.00193789
0.00193796
0.00193803
0.00193665
0.00197143
0.00194404
0.00193817
0.00193786
0.00193788
0.00193803
0.001939
0.00194244
0.0019487
0.00195809
0.00195703
0.0019461
0.00193862
0.00193789
0.00193785
0.00193776
0.00193749
0.00193764
0.00193988
0.00194622
0.00195064
0.001948
0.00193922
0.00193798
0.00193787
0.00193787
0.00193778
0.00193743
0.00193715
0.00193892
0.00194094
0.00194817
0.00193984
0.00193812
0.00193789
0.00193787
0.00193789
0.00193786
0.0019377
0.00193781
0.00192692
0.00194478
0.00193984
0.00193825
0.00193792
0.00193787
0.00193787
0.00193787
0.00193786
0.00193786
0.00191087
0.00193758
0.00193856
0.00193812
0.00193792
0.00193788
0.00193787
0.00193787
0.00193787
0.00193787
0.001898
0.00192949
0.00193642
0.00193769
0.00193786
0.00193787
0.00193787
0.00193787
0.00193787
0.00193787
0.00189363
0.00192528
0.0019351
0.00193737
0.00193779
0.00193786
0.00193787
0.00193787
0.00193786
0.00193782
0.00189979
0.00192729
0.00193565
0.00193749
0.00193781
0.00193786
0.00193786
0.00193785
0.00193777
0.00193749
0.00192021
0.00193458
0.00193736
0.00193781
0.00193786
0.00193787
0.00193789
0.00193804
0.00193892
0.00194281
0.00194514
0.00193912
0.00193805
0.00193789
0.00193787
0.00193787
0.00193787
0.0019379
0.00193805
0.00193849
0.00193904
0.00193818
0.00193792
0.00193788
0.00193787
0.00193787
0.00193787
0.00193787
0.00193789
0.00193793
0.001938
0.00193791
0.00193788
0.00193787
0.00193787
0.00193787
0.00193787
0.00193787
0.00193787
0.00193787
0.00193788
0.00193787
0.00193787
0.00193787
0.00193787
0.00193787
0.00193787
0.00193787
0.00193787
0.00193787
0.00193787
0.00193787
0.00193787
0.00193787
0.00193787
0.00193787
0.00193787
0.00193787
0.00193787
0.00193787
0.00193787
0.00193787
0.00193787
0.00193787
0.00193787
0.00193787
0.00193787
0.00193787
0.00193787
0.00193787
0.00193787
0.00193787
0.00193787
0.00193787
0.00193787
0.00193787
0.00193787
0.00193787
0.00193787
0.00193787
0.00193787
0.00193787
0.00193787
0.00193787
0.00193787
0.00193787
0.00193787
0.00193787
0.00193787
0.00193787
0.00193787
0.00193787
0.00193787
0.00193787
0.00193787
0.00193787
0.00193787
0.00193787
0.00193787
0.00193787
0.00193787
0.00193787
0.00193787
0.00193787
0.00193787
0.00193787
0.00193787
0.00193787
0.00193787
0.00193787
0.00193787
0.00193787
0.00193787
0.00193787
0.00193787
0.00193787
0.00193787
0.00193787
0.00193787
0.00193787
0.00193787
0.00193787
0.00193787
0.00193787
0.00193787
0.00193787
0.00193787
0.00193787
0.00193787
0.00193787
0.00193787
0.00193787
0.00193787
0.00193787
0.00193787
0.00193787
0.00193787
0.00193787
0.00193787
0.00193787
0.00193787
0.00193787
0.00193787
0.00193787
0.00193787
0.00193787
0.00193787
0.00193787
0.00193787
0.00193787
0.00193787
0.00193787
0.00193787
0.00193787
0.00193787
0.00193787
0.00193787
0.00193787
0.00193787
0.00193787
0.00193787
0.00193787
0.00193787
0.00193787
0.00193787
0.00193787
0.00193787
0.00193787
0.00193787
0.00193787
0.00193787
0.00193787
0.00193787
0.00193787
0.00193787
0.00193787
0.00193787
0.00193787
0.00193787
0.00193787
0.00193787
0.00193787
0.00193787
0.00193787
0.00193787
0.00193787
0.00193787
0.00193787
0.00193787
0.00193787
0.00193787
0.00193787
0.00193787
0.00193787
0.00193787
0.00193787
0.00193787
0.00193787
0.00193787
0.00193787
0.00193787
0.00193787
0.00193787
0.00193787
0.00193787
0.00193787
0.00193787
0.00193787
0.00193787
0.00193787
0.0019419
0.00194385
0.0019464
0.00194914
0.00195144
0.00195293
0.00195311
0.00195213
0.00195052
0.00194879
0.00193834
0.00193926
0.00194053
0.00194166
0.00194208
0.00194163
0.00194056
0.0019393
0.00193817
0.00193727
0.0019379
0.00193808
0.00193836
0.00193853
0.00193846
0.00193818
0.00193786
0.00193763
0.00193755
0.00193765
0.00193787
0.00193789
0.00193793
0.00193794
0.00193791
0.00193786
0.00193783
0.00193783
0.00193785
0.00193787
0.00193787
0.00193787
0.00193787
0.00193787
0.00193787
0.00193787
0.00193787
0.00193787
0.00193787
0.00193787
0.00193787
0.00193787
0.00193787
0.00193787
0.00193787
0.00193787
0.00193787
0.00193787
0.00193787
0.00193787
0.00193792
0.00193788
0.00193787
0.00193786
0.00193786
0.00193786
0.00193786
0.00193786
0.00193786
0.00193785
0.00193823
0.00193804
0.00193788
0.00193781
0.00193779
0.00193779
0.00193779
0.0019378
0.00193782
0.00193792
0.00193996
0.00193937
0.00193819
0.0019375
0.00193712
0.00193692
0.00193683
0.00193681
0.00193692
0.00193704
0.00194304
0.00194781
0.00194592
0.00194431
0.00194313
0.00194226
0.00194158
0.00194092
0.0019382
0.00191005
0.00193871
0.00193799
0.00193788
0.00193787
0.00193787
0.00193787
0.00193784
0.00193757
0.00193573
0.00192573
0.00193794
0.00193788
0.00193787
0.00193787
0.00193787
0.00193787
0.00193786
0.00193779
0.00193739
0.00193604
0.00193787
0.00193787
0.00193787
0.00193787
0.00193787
0.00193787
0.00193787
0.00193786
0.0019378
0.00193766
0.00193787
0.00193787
0.00193787
0.00193787
0.00193787
0.00193787
0.00193787
0.00193787
0.00193786
0.00193785
0.00193787
0.00193787
0.00193787
0.00193787
0.00193787
0.00193787
0.00193787
0.00193787
0.00193787
0.00193787
0.00193787
0.00193787
0.00193787
0.00193787
0.00193787
0.00193787
0.00193787
0.00193787
0.00193787
0.00193787
0.00193787
0.00193787
0.00193787
0.00193787
0.00193787
0.00193787
0.00193787
0.00193787
0.00193787
0.00193787
0.00193787
0.00193787
0.00193787
0.00193787
0.00193787
0.00193787
0.00193787
0.00193787
0.00193787
0.00193787
0.00193787
0.00193787
0.00193787
0.00193787
0.00193787
0.00193787
0.00193787
0.00193787
0.00193787
0.00193787
0.00193787
0.00193787
0.00193787
0.00193787
0.00193787
0.00193787
0.00193787
0.00193787
0.00193787
0.00193787
0.00193787
0.00193787
0.00193787
0.00193787
0.00193787
0.00193787
0.00193787
0.00193787
0.00193787
0.00193787
0.00193787
0.00193787
0.00193787
0.00193787
0.00193787
0.00193787
0.00193787
0.00193787
0.00193787
0.00193787
0.00193787
0.00193787
0.00193787
0.00193787
0.00193787
0.00193787
0.00193787
0.00193787
0.00193787
0.00193787
0.00193787
0.00193787
0.00193787
0.00193787
0.00193787
0.00193787
0.00193787
0.00193787
0.00193787
0.00193787
0.00193787
0.00193787
0.00193787
0.00193787
0.00193787
0.00193787
0.00193787
0.00193787
0.00193787
0.00193787
0.00193787
0.00193787
0.00193787
0.00193787
0.00193787
0.00193787
0.00193787
0.00193787
0.00193787
0.00193787
0.00193787
0.00193787
0.00193787
0.00193787
0.00193787
0.00193787
0.00193787
0.00193787
0.00193787
0.00193787
0.00193787
0.00193787
0.00193787
0.00193787
0.00193787
0.00193787
0.00193787
0.00193787
0.00193787
0.00193787
0.00193787
0.00193787
0.00193787
0.00193787
0.00193787
0.00193787
0.00193787
0.00193787
0.00193787
0.00193787
0.00193787
0.00193787
0.00193787
0.00193787
0.00193787
0.00193787
0.00193787
0.00193787
0.00193787
0.00193787
)
;

boundaryField
{
    defaultFaces
    {
        type            empty;
    }
}


// ************************************************************************* //
