/*--------------------------------*- C++ -*----------------------------------*\
  =========                 |
  \\      /  F ield         | OpenFOAM: The Open Source CFD Toolbox
   \\    /   O peration     | Website:  https://openfoam.org
    \\  /    A nd           | Version:  11
     \\/     M anipulation  |
\*---------------------------------------------------------------------------*/
FoamFile
{
    format      ascii;
    class       volScalarField;
    location    "0.5";
    object      k;
}
// * * * * * * * * * * * * * * * * * * * * * * * * * * * * * * * * * * * * * //

dimensions      [0 2 -2 0 0 0 0];

internalField   nonuniform List<scalar> 
700
(
0.00186197
0.00186197
0.00186197
0.00186197
0.00186197
0.00186197
0.00186197
0.00186197
0.00186197
0.00186197
0.00186197
0.00186197
0.00186197
0.00186197
0.00186197
0.00186197
0.00186197
0.00186197
0.00186197
0.00186197
0.00186197
0.00186197
0.00186197
0.00186197
0.00186197
0.00186197
0.00186197
0.00186197
0.00186197
0.00186197
0.00186197
0.00186197
0.00186197
0.00186197
0.00186197
0.00186197
0.00186197
0.00186197
0.00186197
0.00186197
0.00186197
0.00186197
0.00186197
0.00186197
0.00186197
0.00186197
0.00186197
0.00186197
0.00186197
0.00186197
0.00186197
0.00186197
0.00186197
0.00186197
0.00186197
0.00186197
0.00186197
0.00186197
0.00186197
0.00186197
0.00186197
0.00186197
0.00186197
0.00186197
0.00186197
0.00186197
0.00186197
0.00186197
0.00186197
0.00186197
0.00186197
0.00186197
0.00186197
0.00186197
0.00186197
0.00186197
0.00186197
0.00186197
0.00186197
0.00186197
0.00186199
0.00186197
0.00186197
0.00186197
0.00186197
0.00186197
0.00186197
0.00186197
0.00186197
0.00186196
0.00186416
0.00186218
0.00186198
0.00186197
0.00186197
0.00186198
0.001862
0.00186209
0.00186215
0.00186061
0.00189935
0.00186923
0.00186239
0.00186197
0.00186199
0.00186219
0.00186333
0.00186685
0.00187257
0.00188079
0.00188361
0.00187144
0.00186297
0.00186201
0.00186194
0.00186183
0.00186159
0.00186201
0.0018645
0.00187033
0.00187632
0.00187334
0.00186371
0.00186214
0.00186198
0.00186197
0.00186183
0.00186146
0.00186134
0.00186324
0.00186553
0.0018732
0.00186442
0.00186234
0.00186201
0.00186198
0.00186199
0.00186194
0.00186176
0.00186192
0.00185009
0.00186899
0.00186431
0.00186249
0.00186206
0.00186198
0.00186198
0.00186198
0.00186196
0.00186196
0.00183258
0.00186061
0.00186258
0.00186227
0.00186205
0.00186199
0.00186197
0.00186197
0.00186197
0.00186197
0.00181861
0.00185144
0.00185985
0.00186165
0.00186194
0.00186197
0.00186197
0.00186197
0.00186197
0.00186197
0.00181385
0.00184679
0.00185823
0.00186122
0.00186184
0.00186195
0.00186197
0.00186197
0.00186197
0.00186195
0.00182054
0.00184923
0.00185897
0.00186139
0.00186188
0.00186196
0.00186197
0.00186196
0.00186194
0.00186188
0.00184274
0.00185782
0.00186123
0.00186187
0.00186196
0.00186197
0.00186199
0.00186206
0.00186237
0.00186351
0.00186933
0.00186334
0.00186219
0.001862
0.00186198
0.00186197
0.00186198
0.00186199
0.00186206
0.00186221
0.00186334
0.00186237
0.00186205
0.00186198
0.00186197
0.00186197
0.00186197
0.00186198
0.00186198
0.001862
0.00186216
0.00186204
0.00186199
0.00186197
0.00186197
0.00186197
0.00186197
0.00186197
0.00186197
0.00186198
0.00186199
0.00186198
0.00186197
0.00186197
0.00186197
0.00186197
0.00186197
0.00186197
0.00186197
0.00186197
0.00186197
0.00186197
0.00186197
0.00186197
0.00186197
0.00186197
0.00186197
0.00186197
0.00186197
0.00186197
0.00186197
0.00186197
0.00186197
0.00186197
0.00186197
0.00186197
0.00186197
0.00186197
0.00186197
0.00186197
0.00186197
0.00186197
0.00186197
0.00186197
0.00186197
0.00186197
0.00186197
0.00186197
0.00186197
0.00186197
0.00186197
0.00186197
0.00186197
0.00186197
0.00186197
0.00186197
0.00186197
0.00186197
0.00186197
0.00186197
0.00186197
0.00186197
0.00186197
0.00186197
0.00186197
0.00186197
0.00186197
0.00186197
0.00186197
0.00186197
0.00186197
0.00186197
0.00186197
0.00186197
0.00186197
0.00186197
0.00186197
0.00186197
0.00186197
0.00186197
0.00186197
0.00186197
0.00186197
0.00186197
0.00186197
0.00186197
0.00186197
0.00186197
0.00186197
0.00186197
0.00186197
0.00186197
0.00186197
0.00186197
0.00186197
0.00186197
0.00186197
0.00186197
0.00186197
0.00186197
0.00186197
0.00186197
0.00186197
0.00186197
0.00186197
0.00186197
0.00186197
0.00186197
0.00186197
0.00186197
0.00186197
0.00186197
0.00186197
0.00186197
0.00186197
0.00186197
0.00186197
0.00186197
0.00186197
0.00186197
0.00186197
0.00186197
0.00186197
0.00186197
0.00186197
0.00186197
0.00186197
0.00186197
0.00186197
0.00186197
0.00186197
0.00186197
0.00186197
0.00186197
0.00186197
0.00186197
0.00186197
0.00186197
0.00186197
0.00186197
0.00186197
0.00186197
0.00186197
0.00186197
0.00186197
0.00186197
0.00186197
0.00186197
0.00186197
0.00186197
0.00186197
0.00186197
0.00186197
0.00186197
0.00186197
0.00186197
0.00186197
0.00186197
0.00186197
0.00186197
0.00186197
0.00186197
0.00186197
0.00186197
0.00186197
0.00186197
0.00186197
0.00186197
0.00186197
0.00186197
0.00186197
0.00186197
0.00186197
0.00186197
0.00186197
0.00186197
0.00186197
0.00186197
0.00186197
0.00186197
0.0018632
0.00186377
0.00186451
0.00186531
0.00186601
0.0018664
0.00186642
0.00186614
0.00186569
0.00186519
0.00186218
0.00186248
0.00186286
0.00186318
0.00186328
0.00186312
0.0018628
0.00186245
0.00186212
0.00186185
0.001862
0.00186208
0.00186218
0.00186223
0.00186219
0.00186209
0.00186198
0.00186191
0.00186188
0.0018619
0.00186197
0.00186199
0.001862
0.00186201
0.00186199
0.00186197
0.00186196
0.00186196
0.00186196
0.00186197
0.00186197
0.00186197
0.00186198
0.00186198
0.00186197
0.00186197
0.00186197
0.00186197
0.00186197
0.00186197
0.00186198
0.00186198
0.00186197
0.00186197
0.00186197
0.00186197
0.00186197
0.00186197
0.00186197
0.00186197
0.00186205
0.001862
0.00186197
0.00186197
0.00186196
0.00186196
0.00186197
0.00186197
0.00186197
0.00186195
0.00186243
0.00186222
0.00186201
0.00186191
0.00186188
0.00186187
0.00186188
0.00186189
0.00186191
0.00186205
0.00186432
0.00186385
0.00186252
0.00186169
0.00186123
0.00186098
0.00186086
0.00186083
0.00186093
0.00186099
0.00186757
0.00187294
0.00187093
0.00186915
0.00186786
0.00186688
0.00186613
0.00186535
0.00186202
0.00183172
0.00186228
0.00186204
0.00186198
0.00186197
0.00186197
0.00186197
0.00186192
0.00186158
0.00185947
0.00184921
0.00186201
0.00186198
0.00186197
0.00186197
0.00186197
0.00186197
0.00186195
0.00186185
0.00186133
0.00185978
0.00186198
0.00186197
0.00186197
0.00186197
0.00186197
0.00186197
0.00186197
0.00186195
0.00186188
0.00186169
0.00186197
0.00186197
0.00186197
0.00186197
0.00186197
0.00186197
0.00186197
0.00186197
0.00186196
0.00186194
0.00186197
0.00186197
0.00186197
0.00186197
0.00186197
0.00186197
0.00186197
0.00186197
0.00186197
0.00186197
0.00186197
0.00186197
0.00186197
0.00186197
0.00186197
0.00186197
0.00186197
0.00186197
0.00186197
0.00186197
0.00186197
0.00186197
0.00186197
0.00186197
0.00186197
0.00186197
0.00186197
0.00186197
0.00186197
0.00186197
0.00186197
0.00186197
0.00186197
0.00186197
0.00186197
0.00186197
0.00186197
0.00186197
0.00186197
0.00186197
0.00186197
0.00186197
0.00186197
0.00186197
0.00186197
0.00186197
0.00186197
0.00186197
0.00186197
0.00186197
0.00186197
0.00186197
0.00186197
0.00186197
0.00186197
0.00186197
0.00186197
0.00186197
0.00186197
0.00186197
0.00186197
0.00186197
0.00186197
0.00186197
0.00186197
0.00186197
0.00186197
0.00186197
0.00186197
0.00186197
0.00186197
0.00186197
0.00186197
0.00186197
0.00186197
0.00186197
0.00186197
0.00186197
0.00186197
0.00186197
0.00186197
0.00186197
0.00186197
0.00186197
0.00186197
0.00186197
0.00186197
0.00186197
0.00186197
0.00186197
0.00186197
0.00186197
0.00186197
0.00186197
0.00186197
0.00186197
0.00186197
0.00186197
0.00186197
0.00186197
0.00186197
0.00186197
0.00186197
0.00186197
0.00186197
0.00186197
0.00186197
0.00186197
0.00186197
0.00186197
0.00186197
0.00186197
0.00186197
0.00186197
0.00186197
0.00186197
0.00186197
0.00186197
0.00186197
0.00186197
0.00186197
0.00186197
0.00186197
0.00186197
0.00186197
0.00186197
0.00186197
0.00186197
0.00186197
0.00186197
0.00186197
0.00186197
0.00186197
0.00186197
0.00186197
0.00186197
0.00186197
0.00186197
0.00186197
0.00186197
0.00186197
0.00186197
0.00186197
0.00186197
0.00186197
0.00186197
0.00186197
0.00186197
0.00186197
0.00186197
0.00186197
0.00186197
0.00186197
0.00186197
0.00186197
0.00186197
0.00186197
0.00186197
0.00186197
0.00186197
)
;

boundaryField
{
    defaultFaces
    {
        type            empty;
    }
}


// ************************************************************************* //
