/*--------------------------------*- C++ -*----------------------------------*\
  =========                 |
  \\      /  F ield         | OpenFOAM: The Open Source CFD Toolbox
   \\    /   O peration     | Website:  https://openfoam.org
    \\  /    A nd           | Version:  11
     \\/     M anipulation  |
\*---------------------------------------------------------------------------*/
FoamFile
{
    format      ascii;
    class       volScalarField;
    location    "9";
    object      epsilon;
}
// * * * * * * * * * * * * * * * * * * * * * * * * * * * * * * * * * * * * * //

dimensions      [0 2 -3 0 0 0 0];

internalField   nonuniform List<scalar> 
700
(
1.93805e-05
1.93805e-05
1.93805e-05
1.93805e-05
1.93805e-05
1.93805e-05
1.93805e-05
1.93805e-05
1.93805e-05
1.93805e-05
1.93805e-05
1.93805e-05
1.93805e-05
1.93805e-05
1.93805e-05
1.93805e-05
1.93805e-05
1.93805e-05
1.93805e-05
1.93805e-05
1.93805e-05
1.93805e-05
1.93805e-05
1.93805e-05
1.93805e-05
1.93805e-05
1.93805e-05
1.93805e-05
1.93805e-05
1.93805e-05
1.93805e-05
1.93805e-05
1.93805e-05
1.93805e-05
1.93805e-05
1.93805e-05
1.93805e-05
1.93805e-05
1.93805e-05
1.93805e-05
1.93805e-05
1.93805e-05
1.93805e-05
1.93805e-05
1.93805e-05
1.93805e-05
1.93805e-05
1.93805e-05
1.93805e-05
1.93805e-05
1.93805e-05
1.93805e-05
1.93805e-05
1.93805e-05
1.93805e-05
1.93805e-05
1.93805e-05
1.93805e-05
1.93805e-05
1.93805e-05
1.93806e-05
1.93806e-05
1.93806e-05
1.93806e-05
1.93805e-05
1.93805e-05
1.93805e-05
1.93805e-05
1.93805e-05
1.93805e-05
1.93828e-05
1.93822e-05
1.93815e-05
1.9381e-05
1.93807e-05
1.93806e-05
1.93804e-05
1.93803e-05
1.938e-05
1.93797e-05
1.94187e-05
1.94068e-05
1.93947e-05
1.93868e-05
1.93828e-05
1.93808e-05
1.93791e-05
1.93766e-05
1.93725e-05
1.93678e-05
1.98709e-05
1.96727e-05
1.95222e-05
1.94384e-05
1.9399e-05
1.93799e-05
1.93644e-05
1.93409e-05
1.92981e-05
1.92197e-05
2.16718e-05
2.05882e-05
1.99055e-05
1.95895e-05
1.94471e-05
1.93753e-05
1.9324e-05
1.9275e-05
1.92258e-05
1.92099e-05
2.11581e-05
2.06668e-05
2.00787e-05
1.97272e-05
1.95364e-05
1.94348e-05
1.93729e-05
1.93222e-05
1.92694e-05
1.92244e-05
2.04074e-05
2.03911e-05
2.00533e-05
1.97935e-05
1.96168e-05
1.9505e-05
1.94349e-05
1.93856e-05
1.93419e-05
1.92976e-05
1.95172e-05
1.98519e-05
1.97931e-05
1.9701e-05
1.96096e-05
1.95335e-05
1.94758e-05
1.9433e-05
1.93983e-05
1.93652e-05
1.8615e-05
1.91565e-05
1.93368e-05
1.94252e-05
1.94583e-05
1.94611e-05
1.94499e-05
1.94336e-05
1.94162e-05
1.9398e-05
1.78502e-05
1.84628e-05
1.88043e-05
1.90353e-05
1.91859e-05
1.92797e-05
1.93349e-05
1.93651e-05
1.93797e-05
1.93847e-05
1.73662e-05
1.79592e-05
1.83775e-05
1.8688e-05
1.89136e-05
1.90739e-05
1.91849e-05
1.92596e-05
1.93085e-05
1.93394e-05
1.72643e-05
1.78017e-05
1.82263e-05
1.85514e-05
1.87964e-05
1.89779e-05
1.91098e-05
1.92036e-05
1.92689e-05
1.93134e-05
1.75872e-05
1.8052e-05
1.84168e-05
1.86936e-05
1.89013e-05
1.9055e-05
1.91672e-05
1.9248e-05
1.9306e-05
1.93477e-05
1.83662e-05
1.86447e-05
1.88494e-05
1.90094e-05
1.91317e-05
1.92235e-05
1.92921e-05
1.93449e-05
1.9389e-05
1.94305e-05
1.90838e-05
1.90639e-05
1.91174e-05
1.91855e-05
1.92476e-05
1.92982e-05
1.93374e-05
1.93675e-05
1.93907e-05
1.94076e-05
1.92093e-05
1.92124e-05
1.92353e-05
1.92679e-05
1.9301e-05
1.933e-05
1.93535e-05
1.93718e-05
1.93853e-05
1.93944e-05
1.92888e-05
1.92929e-05
1.9304e-05
1.93196e-05
1.93364e-05
1.93519e-05
1.9365e-05
1.93752e-05
1.93827e-05
1.93875e-05
1.93344e-05
1.93369e-05
1.93422e-05
1.93496e-05
1.93578e-05
1.93656e-05
1.93723e-05
1.93776e-05
1.93815e-05
1.93839e-05
1.93588e-05
1.936e-05
1.93624e-05
1.93658e-05
1.93696e-05
1.93733e-05
1.93765e-05
1.93791e-05
1.9381e-05
1.93822e-05
1.9371e-05
1.93715e-05
1.93726e-05
1.9374e-05
1.93757e-05
1.93773e-05
1.93788e-05
1.93799e-05
1.93808e-05
1.93813e-05
1.93766e-05
1.93769e-05
1.93773e-05
1.93779e-05
1.93786e-05
1.93792e-05
1.93798e-05
1.93803e-05
1.93807e-05
1.93809e-05
1.93791e-05
1.93792e-05
1.93793e-05
1.93796e-05
1.93798e-05
1.93801e-05
1.93803e-05
1.93805e-05
1.93806e-05
1.93807e-05
1.93801e-05
1.93801e-05
1.93802e-05
1.93802e-05
1.93803e-05
1.93804e-05
1.93805e-05
1.93806e-05
1.93806e-05
1.93806e-05
1.93804e-05
1.93804e-05
1.93804e-05
1.93805e-05
1.93805e-05
1.93805e-05
1.93805e-05
1.93806e-05
1.93806e-05
1.93806e-05
1.93805e-05
1.93805e-05
1.93805e-05
1.93805e-05
1.93805e-05
1.93805e-05
1.93805e-05
1.93805e-05
1.93805e-05
1.93805e-05
1.93805e-05
1.93805e-05
1.93805e-05
1.93805e-05
1.93805e-05
1.93805e-05
1.93805e-05
1.93805e-05
1.93805e-05
1.93805e-05
1.93805e-05
1.93805e-05
1.93805e-05
1.93805e-05
1.93805e-05
1.93805e-05
1.93805e-05
1.93805e-05
1.93805e-05
1.93805e-05
1.93805e-05
1.93805e-05
1.93805e-05
1.93805e-05
1.93805e-05
1.93805e-05
1.93805e-05
1.93805e-05
1.93805e-05
1.93805e-05
1.93805e-05
1.93805e-05
1.93805e-05
1.93805e-05
1.93805e-05
1.93805e-05
1.93805e-05
1.93805e-05
1.93805e-05
1.93805e-05
1.93805e-05
1.93805e-05
1.93805e-05
1.93805e-05
1.93805e-05
1.93805e-05
1.93805e-05
1.93805e-05
1.93805e-05
1.93805e-05
1.93805e-05
1.93805e-05
1.93805e-05
1.93805e-05
1.93805e-05
1.93805e-05
1.93805e-05
1.93805e-05
1.93805e-05
1.93805e-05
1.93805e-05
1.93805e-05
1.93805e-05
1.93805e-05
1.93805e-05
1.93805e-05
1.93805e-05
1.93805e-05
1.93805e-05
1.93805e-05
1.93805e-05
1.93805e-05
1.93805e-05
1.93805e-05
1.93805e-05
1.93805e-05
1.93805e-05
1.93805e-05
1.93805e-05
1.93805e-05
1.93805e-05
1.93805e-05
1.93805e-05
1.93805e-05
1.93805e-05
1.93805e-05
1.93805e-05
1.93805e-05
1.93805e-05
1.93805e-05
1.94338e-05
1.94422e-05
1.94511e-05
1.94591e-05
1.94646e-05
1.94669e-05
1.94662e-05
1.94617e-05
1.94551e-05
1.94478e-05
1.94183e-05
1.94266e-05
1.9434e-05
1.94375e-05
1.9435e-05
1.94271e-05
1.9415e-05
1.94004e-05
1.93847e-05
1.93685e-05
1.94123e-05
1.94179e-05
1.94212e-05
1.94194e-05
1.94117e-05
1.93995e-05
1.93846e-05
1.93688e-05
1.93526e-05
1.93366e-05
1.94128e-05
1.94168e-05
1.94168e-05
1.94117e-05
1.94022e-05
1.93905e-05
1.93785e-05
1.93673e-05
1.93578e-05
1.93507e-05
1.94206e-05
1.94256e-05
1.9423e-05
1.94149e-05
1.94041e-05
1.93931e-05
1.9384e-05
1.93778e-05
1.93755e-05
1.93786e-05
1.94378e-05
1.94488e-05
1.94444e-05
1.94314e-05
1.94161e-05
1.94024e-05
1.93918e-05
1.9385e-05
1.93823e-05
1.93847e-05
1.94675e-05
1.94947e-05
1.94892e-05
1.94676e-05
1.94423e-05
1.9419e-05
1.93994e-05
1.93825e-05
1.93672e-05
1.93539e-05
1.95144e-05
1.95765e-05
1.95712e-05
1.95354e-05
1.94919e-05
1.94496e-05
1.94083e-05
1.93644e-05
1.93165e-05
1.92719e-05
1.95868e-05
1.97139e-05
1.97086e-05
1.96514e-05
1.95806e-05
1.95064e-05
1.94227e-05
1.93168e-05
1.91851e-05
1.90647e-05
1.96623e-05
1.99364e-05
1.99561e-05
1.98952e-05
1.98115e-05
1.97132e-05
1.95795e-05
1.93644e-05
1.89956e-05
1.83601e-05
1.94152e-05
1.9409e-05
1.94043e-05
1.9403e-05
1.94048e-05
1.94086e-05
1.94116e-05
1.94058e-05
1.93695e-05
1.92409e-05
1.93983e-05
1.93971e-05
1.93947e-05
1.93927e-05
1.93913e-05
1.93894e-05
1.93846e-05
1.93728e-05
1.93486e-05
1.93126e-05
1.93896e-05
1.93893e-05
1.93878e-05
1.93859e-05
1.93834e-05
1.938e-05
1.93744e-05
1.93654e-05
1.93528e-05
1.93407e-05
1.9385e-05
1.93848e-05
1.93838e-05
1.93821e-05
1.93799e-05
1.93768e-05
1.93724e-05
1.93668e-05
1.93604e-05
1.93557e-05
1.93826e-05
1.93824e-05
1.93817e-05
1.93805e-05
1.93788e-05
1.93766e-05
1.93738e-05
1.93705e-05
1.93672e-05
1.93651e-05
1.93815e-05
1.93813e-05
1.93808e-05
1.938e-05
1.93789e-05
1.93775e-05
1.93758e-05
1.9374e-05
1.93723e-05
1.93713e-05
1.93809e-05
1.93808e-05
1.93805e-05
1.938e-05
1.93794e-05
1.93785e-05
1.93776e-05
1.93766e-05
1.93758e-05
1.93753e-05
1.93807e-05
1.93806e-05
1.93804e-05
1.93802e-05
1.93798e-05
1.93794e-05
1.93789e-05
1.93784e-05
1.9378e-05
1.93777e-05
1.93806e-05
1.93806e-05
1.93805e-05
1.93803e-05
1.93801e-05
1.93799e-05
1.93796e-05
1.93794e-05
1.93792e-05
1.93791e-05
1.93806e-05
1.93805e-05
1.93805e-05
1.93804e-05
1.93803e-05
1.93802e-05
1.938e-05
1.93799e-05
1.93798e-05
1.93797e-05
1.93805e-05
1.93805e-05
1.93805e-05
1.93805e-05
1.93805e-05
1.93805e-05
1.93805e-05
1.93805e-05
1.93805e-05
1.93805e-05
1.93805e-05
1.93805e-05
1.93805e-05
1.93805e-05
1.93805e-05
1.93805e-05
1.93805e-05
1.93805e-05
1.93805e-05
1.93805e-05
1.93805e-05
1.93805e-05
1.93805e-05
1.93805e-05
1.93805e-05
1.93805e-05
1.93805e-05
1.93805e-05
1.93805e-05
1.93805e-05
1.93805e-05
1.93805e-05
1.93805e-05
1.93805e-05
1.93805e-05
1.93805e-05
1.93805e-05
1.93805e-05
1.93805e-05
1.93805e-05
1.93805e-05
1.93805e-05
1.93805e-05
1.93805e-05
1.93805e-05
1.93805e-05
1.93805e-05
1.93805e-05
1.93805e-05
1.93805e-05
1.93805e-05
1.93805e-05
1.93805e-05
1.93805e-05
1.93805e-05
1.93805e-05
1.93805e-05
1.93805e-05
1.93805e-05
1.93805e-05
1.93805e-05
1.93805e-05
1.93805e-05
1.93805e-05
1.93805e-05
1.93805e-05
1.93805e-05
1.93805e-05
1.93805e-05
1.93805e-05
1.93805e-05
1.93805e-05
1.93805e-05
1.93805e-05
1.93805e-05
1.93805e-05
1.93805e-05
1.93805e-05
1.93805e-05
1.93805e-05
1.93805e-05
1.93805e-05
1.93805e-05
1.93805e-05
1.93805e-05
1.93805e-05
1.93805e-05
1.93805e-05
1.93805e-05
1.93805e-05
1.93805e-05
1.93805e-05
1.93805e-05
1.93805e-05
1.93805e-05
1.93805e-05
1.93805e-05
1.93805e-05
1.93805e-05
1.93805e-05
)
;

boundaryField
{
    defaultFaces
    {
        type            empty;
    }
}


// ************************************************************************* //
