/*--------------------------------*- C++ -*----------------------------------*\
  =========                 |
  \\      /  F ield         | OpenFOAM: The Open Source CFD Toolbox
   \\    /   O peration     | Website:  https://openfoam.org
    \\  /    A nd           | Version:  11
     \\/     M anipulation  |
\*---------------------------------------------------------------------------*/
FoamFile
{
    format      ascii;
    class       volScalarField;
    location    "9";
    object      k;
}
// * * * * * * * * * * * * * * * * * * * * * * * * * * * * * * * * * * * * * //

dimensions      [0 2 -2 0 0 0 0];

internalField   nonuniform List<scalar> 
700
(
0.000170409
0.000170409
0.000170409
0.000170409
0.000170409
0.000170409
0.000170409
0.000170409
0.000170409
0.000170409
0.000170409
0.000170409
0.000170409
0.000170409
0.000170409
0.000170409
0.000170409
0.000170409
0.000170409
0.000170409
0.000170409
0.000170409
0.000170409
0.000170409
0.000170409
0.000170409
0.000170409
0.000170409
0.000170409
0.000170409
0.000170409
0.000170409
0.000170409
0.000170409
0.000170409
0.000170409
0.000170409
0.000170409
0.000170409
0.000170409
0.000170409
0.000170409
0.000170409
0.000170409
0.000170409
0.000170409
0.000170409
0.000170409
0.000170409
0.000170409
0.000170409
0.000170409
0.000170409
0.000170409
0.000170409
0.000170409
0.000170409
0.000170409
0.000170409
0.000170409
0.00017041
0.00017041
0.000170409
0.000170409
0.000170409
0.000170409
0.000170409
0.000170409
0.000170408
0.000170408
0.000170435
0.000170429
0.000170421
0.000170415
0.000170411
0.000170409
0.000170408
0.000170405
0.000170402
0.0001704
0.000170813
0.000170695
0.000170569
0.000170483
0.000170437
0.000170412
0.000170391
0.000170363
0.000170321
0.000170277
0.000175186
0.000173352
0.0001719
0.000171049
0.000170622
0.000170402
0.000170227
0.000169987
0.00016958
0.000168871
0.000191407
0.000181736
0.000175525
0.000172542
0.00017113
0.000170386
0.00016986
0.000169382
0.000168918
0.000168757
0.000186782
0.000182421
0.000177117
0.000173857
0.00017202
0.000170997
0.000170356
0.000169842
0.00016933
0.0001689
0.000179855
0.000179783
0.0001768
0.000174444
0.000172788
0.000171701
0.00017099
0.000170479
0.000170032
0.000169593
0.000171614
0.000174685
0.000174251
0.000173474
0.00017266
0.000171955
0.000171396
0.000170963
0.000170604
0.000170263
0.000163316
0.000168193
0.000169893
0.000170764
0.000171122
0.000171185
0.0001711
0.000170952
0.000170782
0.000170597
0.000156345
0.000161801
0.000164899
0.000167032
0.000168453
0.000169361
0.000169913
0.000170226
0.000170384
0.000170444
0.000151976
0.000157216
0.000160953
0.000163764
0.000165841
0.000167343
0.000168407
0.000169141
0.000169634
0.000169955
0.000151081
0.000155808
0.000159577
0.000162496
0.000164729
0.000166412
0.000167658
0.000168565
0.000169212
0.000169663
0.000154011
0.000158097
0.000161334
0.000163821
0.000165716
0.000167144
0.000168205
0.000168984
0.000169555
0.00016998
0.000161001
0.000163461
0.000165295
0.000166754
0.000167889
0.000168756
0.000169415
0.000169935
0.000170401
0.000170905
0.000167434
0.000167278
0.00016778
0.000168422
0.000169016
0.000169506
0.000169889
0.000170187
0.000170426
0.000170617
0.000168638
0.000168679
0.000168904
0.000169223
0.000169549
0.000169838
0.000170073
0.000170257
0.000170395
0.000170493
0.000169422
0.000169468
0.000169582
0.000169742
0.000169914
0.000170074
0.000170209
0.000170315
0.000170394
0.000170446
0.00016989
0.000169917
0.000169975
0.000170055
0.000170142
0.000170226
0.000170299
0.000170357
0.000170399
0.000170427
0.000170151
0.000170166
0.000170194
0.000170232
0.000170275
0.000170316
0.000170353
0.000170383
0.000170405
0.000170419
0.000170289
0.000170296
0.000170309
0.000170327
0.000170346
0.000170366
0.000170383
0.000170398
0.000170408
0.000170415
0.000170357
0.00017036
0.000170366
0.000170374
0.000170382
0.000170391
0.000170399
0.000170405
0.00017041
0.000170413
0.000170389
0.00017039
0.000170393
0.000170396
0.000170399
0.000170403
0.000170406
0.000170409
0.000170411
0.000170412
0.000170402
0.000170403
0.000170404
0.000170405
0.000170406
0.000170408
0.000170409
0.00017041
0.000170411
0.000170411
0.000170407
0.000170407
0.000170407
0.000170408
0.000170408
0.000170409
0.000170409
0.00017041
0.00017041
0.00017041
0.000170409
0.000170409
0.000170409
0.00017041
0.00017041
0.00017041
0.00017041
0.00017041
0.00017041
0.00017041
0.00017041
0.00017041
0.00017041
0.00017041
0.00017041
0.00017041
0.00017041
0.00017041
0.00017041
0.00017041
0.00017041
0.00017041
0.00017041
0.00017041
0.00017041
0.00017041
0.00017041
0.00017041
0.00017041
0.00017041
0.00017041
0.00017041
0.00017041
0.00017041
0.00017041
0.00017041
0.00017041
0.00017041
0.00017041
0.00017041
0.00017041
0.00017041
0.00017041
0.00017041
0.00017041
0.00017041
0.00017041
0.00017041
0.00017041
0.00017041
0.00017041
0.00017041
0.00017041
0.00017041
0.00017041
0.00017041
0.00017041
0.00017041
0.00017041
0.00017041
0.00017041
0.00017041
0.00017041
0.00017041
0.00017041
0.00017041
0.00017041
0.00017041
0.00017041
0.00017041
0.00017041
0.00017041
0.00017041
0.00017041
0.00017041
0.00017041
0.00017041
0.00017041
0.00017041
0.00017041
0.00017041
0.00017041
0.00017041
0.00017041
0.00017041
0.00017041
0.00017041
0.00017041
0.00017041
0.00017041
0.000170409
0.000170409
0.000170409
0.000170409
0.000170409
0.000170409
0.000170409
0.000170409
0.000170409
0.000170409
0.000170981
0.000171093
0.000171212
0.000171316
0.000171384
0.000171411
0.000171397
0.000171352
0.000171269
0.00017117
0.000170757
0.000170854
0.000170943
0.000170987
0.000170962
0.000170875
0.000170742
0.000170577
0.000170393
0.000170207
0.000170695
0.000170745
0.000170775
0.000170753
0.000170672
0.000170545
0.000170391
0.000170226
0.000170059
0.000169897
0.000170717
0.000170746
0.000170738
0.000170683
0.000170589
0.000170474
0.000170354
0.000170242
0.000170146
0.000170074
0.000170811
0.000170853
0.000170825
0.000170745
0.00017064
0.000170532
0.00017044
0.000170375
0.00017035
0.000170382
0.000170988
0.000171094
0.000171055
0.000170933
0.000170784
0.000170645
0.000170535
0.00017046
0.000170429
0.000170456
0.000171274
0.000171537
0.000171497
0.000171298
0.000171053
0.00017082
0.000170614
0.000170433
0.000170273
0.000170142
0.000171709
0.000172295
0.000172267
0.000171944
0.000171532
0.000171113
0.000170693
0.000170245
0.00016977
0.000169348
0.000172363
0.000173536
0.000173519
0.000173011
0.00017235
0.000171633
0.000170809
0.000169783
0.000168549
0.000167465
0.000173038
0.000175514
0.000175724
0.000175184
0.000174402
0.000173456
0.000172168
0.000170159
0.000166835
0.000161252
0.000170721
0.000170653
0.00017062
0.000170626
0.00017066
0.000170711
0.000170751
0.000170712
0.000170401
0.000169274
0.000170544
0.000170543
0.000170534
0.000170529
0.000170528
0.00017052
0.000170487
0.00017039
0.000170182
0.000169867
0.000170474
0.000170479
0.000170474
0.000170464
0.000170448
0.000170422
0.000170377
0.000170301
0.000170192
0.000170087
0.000170441
0.000170444
0.000170439
0.000170427
0.000170409
0.000170384
0.000170346
0.000170297
0.000170242
0.000170199
0.000170425
0.000170425
0.00017042
0.00017041
0.000170396
0.000170376
0.000170351
0.000170321
0.000170292
0.000170272
0.000170417
0.000170416
0.000170412
0.000170405
0.000170395
0.000170381
0.000170366
0.000170348
0.000170333
0.000170323
0.000170413
0.000170412
0.000170409
0.000170405
0.000170398
0.00017039
0.000170381
0.000170371
0.000170363
0.000170358
0.000170412
0.000170411
0.000170409
0.000170406
0.000170402
0.000170398
0.000170392
0.000170387
0.000170383
0.00017038
0.000170411
0.00017041
0.000170409
0.000170407
0.000170405
0.000170403
0.0001704
0.000170397
0.000170394
0.000170393
0.00017041
0.00017041
0.000170409
0.000170408
0.000170407
0.000170405
0.000170404
0.000170402
0.0001704
0.0001704
0.00017041
0.000170409
0.000170409
0.000170409
0.000170409
0.000170409
0.000170409
0.000170409
0.000170408
0.000170408
0.00017041
0.00017041
0.00017041
0.00017041
0.00017041
0.000170409
0.000170409
0.000170409
0.000170409
0.000170409
0.00017041
0.00017041
0.00017041
0.00017041
0.00017041
0.000170409
0.000170409
0.000170409
0.000170409
0.000170409
0.00017041
0.00017041
0.00017041
0.00017041
0.00017041
0.000170409
0.000170409
0.000170409
0.000170409
0.000170409
0.00017041
0.00017041
0.00017041
0.00017041
0.00017041
0.000170409
0.000170409
0.000170409
0.000170409
0.000170409
0.00017041
0.00017041
0.00017041
0.00017041
0.00017041
0.000170409
0.000170409
0.000170409
0.000170409
0.000170409
0.00017041
0.00017041
0.00017041
0.00017041
0.00017041
0.000170409
0.000170409
0.000170409
0.000170409
0.000170409
0.00017041
0.00017041
0.00017041
0.00017041
0.00017041
0.000170409
0.000170409
0.000170409
0.000170409
0.000170409
0.00017041
0.00017041
0.00017041
0.00017041
0.00017041
0.000170409
0.000170409
0.000170409
0.000170409
0.000170409
0.000170409
0.000170409
0.000170409
0.000170409
0.000170409
0.000170409
0.000170409
0.000170409
0.000170409
0.000170409
)
;

boundaryField
{
    defaultFaces
    {
        type            empty;
    }
}


// ************************************************************************* //
