/*--------------------------------*- C++ -*----------------------------------*\
  =========                 |
  \\      /  F ield         | OpenFOAM: The Open Source CFD Toolbox
   \\    /   O peration     | Website:  https://openfoam.org
    \\  /    A nd           | Version:  11
     \\/     M anipulation  |
\*---------------------------------------------------------------------------*/
FoamFile
{
    format      ascii;
    class       volScalarField;
    location    "9";
    object      nut;
}
// * * * * * * * * * * * * * * * * * * * * * * * * * * * * * * * * * * * * * //

dimensions      [0 2 -1 0 0 0 0];

internalField   nonuniform List<scalar> 
700
(
0.000134853
0.000134853
0.000134853
0.000134853
0.000134853
0.000134853
0.000134853
0.000134853
0.000134853
0.000134853
0.000134853
0.000134853
0.000134853
0.000134853
0.000134853
0.000134853
0.000134853
0.000134853
0.000134853
0.000134853
0.000134853
0.000134853
0.000134853
0.000134853
0.000134853
0.000134853
0.000134853
0.000134853
0.000134853
0.000134853
0.000134853
0.000134853
0.000134853
0.000134853
0.000134853
0.000134853
0.000134853
0.000134853
0.000134853
0.000134853
0.000134853
0.000134853
0.000134853
0.000134853
0.000134853
0.000134853
0.000134853
0.000134853
0.000134853
0.000134853
0.000134853
0.000134853
0.000134853
0.000134853
0.000134853
0.000134853
0.000134853
0.000134853
0.000134853
0.000134853
0.000134855
0.000134854
0.000134854
0.000134853
0.000134853
0.000134853
0.000134853
0.000134853
0.000134853
0.000134852
0.000134879
0.000134873
0.000134865
0.000134859
0.000134855
0.000134853
0.000134852
0.00013485
0.000134847
0.000134844
0.000135227
0.000135123
0.000135009
0.000134927
0.000134881
0.000134856
0.000134835
0.000134808
0.000134771
0.000134732
0.000139003
0.000137478
0.000136228
0.000135464
0.000135062
0.000134847
0.000134678
0.000134461
0.000134114
0.000133539
0.000152147
0.00014438
0.000139299
0.000136776
0.000135531
0.000134853
0.000134379
0.000133962
0.00013357
0.000133427
0.000148401
0.000144918
0.000140614
0.0001379
0.000136319
0.000135407
0.000134823
0.000134362
0.000133918
0.000133552
0.000142659
0.000142659
0.000140289
0.000138366
0.000136976
0.000136032
0.000135395
0.000134928
0.000134525
0.00013414
0.00013581
0.000138341
0.000138063
0.000137474
0.000136823
0.000136235
0.000135752
0.000135365
0.000135038
0.000134729
0.000128954
0.000132905
0.000134341
0.000135105
0.00013544
0.000135521
0.000135464
0.000135344
0.000135195
0.000135029
0.000123245
0.000127617
0.000130143
0.000131912
0.000133112
0.000133897
0.000134385
0.00013467
0.000134819
0.000134879
0.000119698
0.000123864
0.000126869
0.000129157
0.000130873
0.000132135
0.000133046
0.000133687
0.000134127
0.000134421
0.000118991
0.000122733
0.000125743
0.000128101
0.00012993
0.00013133
0.000132385
0.000133167
0.000133736
0.00013414
0.00012138
0.000124614
0.000127198
0.000129208
0.000130761
0.000131951
0.00013285
0.000133521
0.000134021
0.000134403
0.000127022
0.000128978
0.000130457
0.000131651
0.000132597
0.00013333
0.000133896
0.000134352
0.000134782
0.000135291
0.000132211
0.000132101
0.000132525
0.000133066
0.000133573
0.000133996
0.000134331
0.000134593
0.000134809
0.000134995
0.000133242
0.000133285
0.000133483
0.00013376
0.000134045
0.0001343
0.00013451
0.000134673
0.000134798
0.000134891
0.00013393
0.000133973
0.000134077
0.000134221
0.000134377
0.000134522
0.000134645
0.000134742
0.000134814
0.000134864
0.000134353
0.000134379
0.000134434
0.000134508
0.00013459
0.000134668
0.000134737
0.000134791
0.000134831
0.000134859
0.000134597
0.000134611
0.000134639
0.000134676
0.000134717
0.000134757
0.000134793
0.000134822
0.000134843
0.000134857
0.00013473
0.000134737
0.00013475
0.000134768
0.000134788
0.000134808
0.000134825
0.00013484
0.00013485
0.000134857
0.000134799
0.000134802
0.000134808
0.000134816
0.000134825
0.000134834
0.000134842
0.000134849
0.000134854
0.000134857
0.000134832
0.000134833
0.000134836
0.000134839
0.000134843
0.000134847
0.00013485
0.000134853
0.000134855
0.000134856
0.000134846
0.000134846
0.000134847
0.000134849
0.00013485
0.000134852
0.000134853
0.000134855
0.000134855
0.000134856
0.000134851
0.000134851
0.000134852
0.000134852
0.000134853
0.000134853
0.000134854
0.000134855
0.000134855
0.000134855
0.000134854
0.000134854
0.000134854
0.000134854
0.000134854
0.000134854
0.000134854
0.000134854
0.000134854
0.000134854
0.000134854
0.000134854
0.000134854
0.000134854
0.000134854
0.000134854
0.000134854
0.000134854
0.000134854
0.000134854
0.000134854
0.000134854
0.000134854
0.000134854
0.000134854
0.000134854
0.000134854
0.000134854
0.000134854
0.000134854
0.000134854
0.000134854
0.000134854
0.000134854
0.000134854
0.000134854
0.000134854
0.000134854
0.000134854
0.000134854
0.000134854
0.000134854
0.000134854
0.000134854
0.000134854
0.000134854
0.000134854
0.000134854
0.000134854
0.000134854
0.000134854
0.000134854
0.000134854
0.000134854
0.000134854
0.000134854
0.000134854
0.000134854
0.000134854
0.000134854
0.000134854
0.000134854
0.000134854
0.000134854
0.000134854
0.000134854
0.000134854
0.000134854
0.000134854
0.000134854
0.000134854
0.000134854
0.000134854
0.000134854
0.000134854
0.000134854
0.000134854
0.000134854
0.000134854
0.000134854
0.000134854
0.000134854
0.000134854
0.000134854
0.000134854
0.000134854
0.000134854
0.000134854
0.000134854
0.000134854
0.000134854
0.000134854
0.000134854
0.000134854
0.000134854
0.000134854
0.000134854
0.000134854
0.000134854
0.000134854
0.000135387
0.000135507
0.000135632
0.000135741
0.000135812
0.000135838
0.000135822
0.000135781
0.000135695
0.00013559
0.000135141
0.000135237
0.000135327
0.000135371
0.00013535
0.000135268
0.00013514
0.000134981
0.000134799
0.000134617
0.000135085
0.000135125
0.000135149
0.000135127
0.000135052
0.000134936
0.000134796
0.000134645
0.000134493
0.000134349
0.000135117
0.000135135
0.000135122
0.000135071
0.000134988
0.000134887
0.000134782
0.000134682
0.000134595
0.000134531
0.000135211
0.000135243
0.000135216
0.000135147
0.000135055
0.00013496
0.000134878
0.000134819
0.000134795
0.000134824
0.000135372
0.000135463
0.000135432
0.000135329
0.0001352
0.000135075
0.000134974
0.000134903
0.000134874
0.000134899
0.000135618
0.000135845
0.000135819
0.000135655
0.000135444
0.000135235
0.000135046
0.000134878
0.00013473
0.000134617
0.00013598
0.000136475
0.000136467
0.000136206
0.000135856
0.000135488
0.000135109
0.000134706
0.000134287
0.000133929
0.000136512
0.000137484
0.000137494
0.000137087
0.000136534
0.000135914
0.000135193
0.000134306
0.000133269
0.000132392
0.000137053
0.000139065
0.00013926
0.000138829
0.000138174
0.00013736
0.000136253
0.000134569
0.000131875
0.000127461
0.000135106
0.000135042
0.000135022
0.000135041
0.000135082
0.000135135
0.000135178
0.000135157
0.000134918
0.000134029
0.000134944
0.00013495
0.000134952
0.000134958
0.000134966
0.000134968
0.000134948
0.000134877
0.000134716
0.000134469
0.000134893
0.000134904
0.000134905
0.000134903
0.000134895
0.000134878
0.000134845
0.000134787
0.000134703
0.00013462
0.000134874
0.000134879
0.000134878
0.000134871
0.000134859
0.000134839
0.000134811
0.000134772
0.000134728
0.000134695
0.000134865
0.000134866
0.000134863
0.000134856
0.000134845
0.000134829
0.000134808
0.000134784
0.000134761
0.000134745
0.00013486
0.00013486
0.000134857
0.000134851
0.000134842
0.000134831
0.000134818
0.000134803
0.00013479
0.000134782
0.000134858
0.000134857
0.000134854
0.00013485
0.000134844
0.000134837
0.000134829
0.000134821
0.000134813
0.000134808
0.000134856
0.000134856
0.000134854
0.000134851
0.000134848
0.000134844
0.000134839
0.000134834
0.00013483
0.000134827
0.000134856
0.000134855
0.000134854
0.000134852
0.00013485
0.000134848
0.000134845
0.000134842
0.00013484
0.000134838
0.000134855
0.000134854
0.000134854
0.000134853
0.000134851
0.00013485
0.000134848
0.000134847
0.000134845
0.000134844
0.000134854
0.000134854
0.000134854
0.000134854
0.000134854
0.000134854
0.000134854
0.000134853
0.000134853
0.000134852
0.000134854
0.000134854
0.000134854
0.000134854
0.000134854
0.000134854
0.000134854
0.000134854
0.000134853
0.000134853
0.000134854
0.000134854
0.000134854
0.000134854
0.000134854
0.000134854
0.000134854
0.000134854
0.000134853
0.000134853
0.000134854
0.000134854
0.000134854
0.000134854
0.000134854
0.000134854
0.000134854
0.000134854
0.000134853
0.000134853
0.000134854
0.000134854
0.000134854
0.000134854
0.000134854
0.000134854
0.000134854
0.000134854
0.000134853
0.000134853
0.000134854
0.000134854
0.000134854
0.000134854
0.000134854
0.000134854
0.000134854
0.000134854
0.000134853
0.000134853
0.000134854
0.000134854
0.000134854
0.000134854
0.000134854
0.000134854
0.000134854
0.000134854
0.000134853
0.000134853
0.000134854
0.000134854
0.000134854
0.000134854
0.000134854
0.000134854
0.000134854
0.000134854
0.000134853
0.000134853
0.000134854
0.000134854
0.000134854
0.000134854
0.000134854
0.000134854
0.000134854
0.000134854
0.000134853
0.000134853
0.000134854
0.000134854
0.000134854
0.000134854
0.000134854
0.000134854
0.000134854
0.000134854
0.000134853
0.000134853
)
;

boundaryField
{
    defaultFaces
    {
        type            empty;
    }
}


// ************************************************************************* //
