/*--------------------------------*- C++ -*----------------------------------*\
  =========                 |
  \\      /  F ield         | OpenFOAM: The Open Source CFD Toolbox
   \\    /   O peration     | Website:  https://openfoam.org
    \\  /    A nd           | Version:  11
     \\/     M anipulation  |
\*---------------------------------------------------------------------------*/
FoamFile
{
    format      ascii;
    class       volScalarField;
    location    "7";
    object      epsilon;
}
// * * * * * * * * * * * * * * * * * * * * * * * * * * * * * * * * * * * * * //

dimensions      [0 2 -3 0 0 0 0];

internalField   nonuniform List<scalar> 
700
(
3.16314e-05
3.16314e-05
3.16314e-05
3.16314e-05
3.16314e-05
3.16314e-05
3.16314e-05
3.16314e-05
3.16314e-05
3.16314e-05
3.16314e-05
3.16314e-05
3.16314e-05
3.16314e-05
3.16314e-05
3.16314e-05
3.16314e-05
3.16314e-05
3.16314e-05
3.16314e-05
3.16314e-05
3.16314e-05
3.16314e-05
3.16314e-05
3.16314e-05
3.16314e-05
3.16314e-05
3.16314e-05
3.16314e-05
3.16314e-05
3.16314e-05
3.16314e-05
3.16314e-05
3.16314e-05
3.16314e-05
3.16314e-05
3.16314e-05
3.16314e-05
3.16314e-05
3.16314e-05
3.16314e-05
3.16314e-05
3.16314e-05
3.16314e-05
3.16314e-05
3.16314e-05
3.16314e-05
3.16314e-05
3.16314e-05
3.16314e-05
3.16314e-05
3.16314e-05
3.16314e-05
3.16314e-05
3.16314e-05
3.16314e-05
3.16314e-05
3.16314e-05
3.16314e-05
3.16314e-05
3.16314e-05
3.16314e-05
3.16314e-05
3.16314e-05
3.16314e-05
3.16314e-05
3.16314e-05
3.16314e-05
3.16313e-05
3.16313e-05
3.16333e-05
3.16327e-05
3.1632e-05
3.16316e-05
3.16315e-05
3.16314e-05
3.16313e-05
3.16312e-05
3.16309e-05
3.16307e-05
3.16709e-05
3.16564e-05
3.16433e-05
3.1636e-05
3.16329e-05
3.16317e-05
3.16306e-05
3.16283e-05
3.16236e-05
3.16174e-05
3.22593e-05
3.19735e-05
3.17781e-05
3.16833e-05
3.16462e-05
3.16317e-05
3.1619e-05
3.1593e-05
3.15351e-05
3.1415e-05
3.50231e-05
3.33186e-05
3.22955e-05
3.18643e-05
3.16948e-05
3.16198e-05
3.15642e-05
3.15034e-05
3.14355e-05
3.14168e-05
3.42311e-05
3.34467e-05
3.25463e-05
3.2045e-05
3.17988e-05
3.16834e-05
3.1619e-05
3.15625e-05
3.1495e-05
3.14344e-05
3.31468e-05
3.30855e-05
3.25405e-05
3.21489e-05
3.19035e-05
3.17636e-05
3.16859e-05
3.16351e-05
3.15871e-05
3.15332e-05
3.1865e-05
3.2352e-05
3.22202e-05
3.20575e-05
3.19139e-05
3.18061e-05
3.17331e-05
3.1685e-05
3.1649e-05
3.16134e-05
3.05373e-05
3.13684e-05
3.16128e-05
3.17179e-05
3.17457e-05
3.17363e-05
3.17137e-05
3.16899e-05
3.16686e-05
3.16486e-05
2.93834e-05
3.03516e-05
3.08671e-05
3.12007e-05
3.14065e-05
3.1526e-05
3.15906e-05
3.16222e-05
3.16353e-05
3.16383e-05
2.86363e-05
2.95917e-05
3.02472e-05
3.0718e-05
3.10469e-05
3.12694e-05
3.14151e-05
3.1507e-05
3.15627e-05
3.1595e-05
2.84676e-05
2.93423e-05
3.00181e-05
3.05207e-05
3.0886e-05
3.1145e-05
3.13236e-05
3.14433e-05
3.15211e-05
3.15699e-05
2.89555e-05
2.97124e-05
3.02931e-05
3.07201e-05
3.10282e-05
3.12457e-05
3.13961e-05
3.14984e-05
3.1568e-05
3.1616e-05
3.0165e-05
3.06133e-05
3.09313e-05
3.11691e-05
3.13419e-05
3.14647e-05
3.15524e-05
3.16193e-05
3.16779e-05
3.17392e-05
3.12836e-05
3.12432e-05
3.13165e-05
3.14091e-05
3.14901e-05
3.15528e-05
3.15995e-05
3.16351e-05
3.16635e-05
3.16847e-05
3.14481e-05
3.14476e-05
3.14749e-05
3.15148e-05
3.15542e-05
3.15873e-05
3.16132e-05
3.16331e-05
3.1648e-05
3.16578e-05
3.15444e-05
3.15475e-05
3.15588e-05
3.15756e-05
3.15934e-05
3.16093e-05
3.16222e-05
3.16322e-05
3.16395e-05
3.16439e-05
3.15939e-05
3.15957e-05
3.16003e-05
3.16071e-05
3.16145e-05
3.16214e-05
3.16273e-05
3.16319e-05
3.16352e-05
3.16371e-05
3.16168e-05
3.16176e-05
3.16193e-05
3.16218e-05
3.16247e-05
3.16274e-05
3.16298e-05
3.16318e-05
3.16331e-05
3.16339e-05
3.16264e-05
3.16267e-05
3.16272e-05
3.16281e-05
3.16291e-05
3.163e-05
3.16309e-05
3.16317e-05
3.16322e-05
3.16324e-05
3.163e-05
3.16301e-05
3.16302e-05
3.16304e-05
3.16307e-05
3.1631e-05
3.16313e-05
3.16316e-05
3.16317e-05
3.16318e-05
3.16311e-05
3.16311e-05
3.16312e-05
3.16312e-05
3.16313e-05
3.16313e-05
3.16314e-05
3.16315e-05
3.16315e-05
3.16315e-05
3.16314e-05
3.16314e-05
3.16314e-05
3.16314e-05
3.16314e-05
3.16314e-05
3.16314e-05
3.16314e-05
3.16314e-05
3.16314e-05
3.16314e-05
3.16314e-05
3.16314e-05
3.16314e-05
3.16314e-05
3.16314e-05
3.16314e-05
3.16314e-05
3.16314e-05
3.16314e-05
3.16314e-05
3.16314e-05
3.16314e-05
3.16314e-05
3.16314e-05
3.16314e-05
3.16314e-05
3.16314e-05
3.16314e-05
3.16314e-05
3.16314e-05
3.16314e-05
3.16314e-05
3.16314e-05
3.16314e-05
3.16314e-05
3.16314e-05
3.16314e-05
3.16314e-05
3.16314e-05
3.16314e-05
3.16314e-05
3.16314e-05
3.16314e-05
3.16314e-05
3.16314e-05
3.16314e-05
3.16314e-05
3.16314e-05
3.16314e-05
3.16314e-05
3.16314e-05
3.16314e-05
3.16314e-05
3.16314e-05
3.16314e-05
3.16314e-05
3.16314e-05
3.16314e-05
3.16314e-05
3.16314e-05
3.16314e-05
3.16314e-05
3.16314e-05
3.16314e-05
3.16314e-05
3.16314e-05
3.16314e-05
3.16314e-05
3.16314e-05
3.16314e-05
3.16314e-05
3.16314e-05
3.16314e-05
3.16314e-05
3.16314e-05
3.16314e-05
3.16314e-05
3.16314e-05
3.16314e-05
3.16314e-05
3.16314e-05
3.16314e-05
3.16314e-05
3.16314e-05
3.16314e-05
3.16314e-05
3.16314e-05
3.16314e-05
3.16314e-05
3.16314e-05
3.16314e-05
3.16314e-05
3.16314e-05
3.16314e-05
3.16314e-05
3.16314e-05
3.16314e-05
3.16314e-05
3.16314e-05
3.16314e-05
3.16314e-05
3.16314e-05
3.16314e-05
3.16314e-05
3.16314e-05
3.16314e-05
3.16314e-05
3.16314e-05
3.16314e-05
3.16314e-05
3.16314e-05
3.16314e-05
3.16314e-05
3.16314e-05
3.16314e-05
3.16314e-05
3.16314e-05
3.16314e-05
3.16314e-05
3.17268e-05
3.17441e-05
3.17633e-05
3.17812e-05
3.17942e-05
3.1801e-05
3.18017e-05
3.17948e-05
3.17834e-05
3.17706e-05
3.16913e-05
3.17087e-05
3.17254e-05
3.17354e-05
3.1735e-05
3.17247e-05
3.17071e-05
3.16854e-05
3.16627e-05
3.16399e-05
3.16744e-05
3.16863e-05
3.16953e-05
3.16961e-05
3.16872e-05
3.16711e-05
3.16515e-05
3.16312e-05
3.16118e-05
3.15936e-05
3.16688e-05
3.16764e-05
3.16788e-05
3.16739e-05
3.16626e-05
3.16483e-05
3.16342e-05
3.16221e-05
3.16125e-05
3.16056e-05
3.16749e-05
3.16816e-05
3.16788e-05
3.16691e-05
3.16564e-05
3.16443e-05
3.16349e-05
3.16292e-05
3.16276e-05
3.16311e-05
3.16955e-05
3.17086e-05
3.17011e-05
3.16841e-05
3.16658e-05
3.16508e-05
3.16405e-05
3.16346e-05
3.16325e-05
3.16348e-05
3.17356e-05
3.17701e-05
3.17583e-05
3.17273e-05
3.1695e-05
3.16685e-05
3.16484e-05
3.16322e-05
3.16171e-05
3.16016e-05
3.18037e-05
3.18884e-05
3.18728e-05
3.18181e-05
3.17592e-05
3.17076e-05
3.16614e-05
3.16131e-05
3.15566e-05
3.14976e-05
3.19147e-05
3.20987e-05
3.20783e-05
3.19875e-05
3.18869e-05
3.17906e-05
3.16872e-05
3.15523e-05
3.13696e-05
3.11852e-05
3.20339e-05
3.24528e-05
3.24697e-05
3.23724e-05
3.22533e-05
3.21246e-05
3.19502e-05
3.16481e-05
3.10817e-05
3.0045e-05
3.16914e-05
3.16748e-05
3.16621e-05
3.16557e-05
3.16547e-05
3.1657e-05
3.16577e-05
3.16442e-05
3.15819e-05
3.13705e-05
3.16603e-05
3.16551e-05
3.16486e-05
3.16433e-05
3.16391e-05
3.1634e-05
3.16242e-05
3.16031e-05
3.1562e-05
3.15024e-05
3.1645e-05
3.1643e-05
3.16395e-05
3.16356e-05
3.16312e-05
3.1625e-05
3.16152e-05
3.16e-05
3.15791e-05
3.15591e-05
3.16375e-05
3.16365e-05
3.16346e-05
3.1632e-05
3.16285e-05
3.16237e-05
3.16169e-05
3.16078e-05
3.15976e-05
3.15899e-05
3.1634e-05
3.16334e-05
3.16323e-05
3.16307e-05
3.16285e-05
3.16254e-05
3.16213e-05
3.16164e-05
3.16115e-05
3.16083e-05
3.16324e-05
3.16321e-05
3.16315e-05
3.16306e-05
3.16293e-05
3.16276e-05
3.16254e-05
3.16229e-05
3.16206e-05
3.16192e-05
3.16318e-05
3.16316e-05
3.16313e-05
3.16308e-05
3.16301e-05
3.16293e-05
3.16282e-05
3.1627e-05
3.16259e-05
3.16253e-05
3.16315e-05
3.16314e-05
3.16313e-05
3.16311e-05
3.16307e-05
3.16303e-05
3.16298e-05
3.16293e-05
3.16288e-05
3.16285e-05
3.16314e-05
3.16314e-05
3.16313e-05
3.16312e-05
3.16311e-05
3.16309e-05
3.16306e-05
3.16304e-05
3.16302e-05
3.16301e-05
3.16314e-05
3.16314e-05
3.16313e-05
3.16313e-05
3.16312e-05
3.16311e-05
3.1631e-05
3.16309e-05
3.16308e-05
3.16308e-05
3.16314e-05
3.16314e-05
3.16314e-05
3.16314e-05
3.16314e-05
3.16314e-05
3.16313e-05
3.16313e-05
3.16313e-05
3.16313e-05
3.16314e-05
3.16314e-05
3.16314e-05
3.16314e-05
3.16314e-05
3.16314e-05
3.16314e-05
3.16314e-05
3.16314e-05
3.16314e-05
3.16314e-05
3.16314e-05
3.16314e-05
3.16314e-05
3.16314e-05
3.16314e-05
3.16314e-05
3.16314e-05
3.16314e-05
3.16314e-05
3.16314e-05
3.16314e-05
3.16314e-05
3.16314e-05
3.16314e-05
3.16314e-05
3.16314e-05
3.16314e-05
3.16314e-05
3.16314e-05
3.16314e-05
3.16314e-05
3.16314e-05
3.16314e-05
3.16314e-05
3.16314e-05
3.16314e-05
3.16314e-05
3.16314e-05
3.16314e-05
3.16314e-05
3.16314e-05
3.16314e-05
3.16314e-05
3.16314e-05
3.16314e-05
3.16314e-05
3.16314e-05
3.16314e-05
3.16314e-05
3.16314e-05
3.16314e-05
3.16314e-05
3.16314e-05
3.16314e-05
3.16314e-05
3.16314e-05
3.16314e-05
3.16314e-05
3.16314e-05
3.16314e-05
3.16314e-05
3.16314e-05
3.16314e-05
3.16314e-05
3.16314e-05
3.16314e-05
3.16314e-05
3.16314e-05
3.16314e-05
3.16314e-05
3.16314e-05
3.16314e-05
3.16314e-05
3.16314e-05
3.16314e-05
3.16314e-05
3.16314e-05
3.16314e-05
3.16314e-05
3.16314e-05
3.16314e-05
3.16314e-05
3.16314e-05
3.16314e-05
3.16314e-05
3.16314e-05
3.16314e-05
3.16314e-05
3.16314e-05
)
;

boundaryField
{
    defaultFaces
    {
        type            empty;
    }
}


// ************************************************************************* //
