/*--------------------------------*- C++ -*----------------------------------*\
  =========                 |
  \\      /  F ield         | OpenFOAM: The Open Source CFD Toolbox
   \\    /   O peration     | Website:  https://openfoam.org
    \\  /    A nd           | Version:  11
     \\/     M anipulation  |
\*---------------------------------------------------------------------------*/
FoamFile
{
    format      ascii;
    class       volScalarField;
    location    "7";
    object      k;
}
// * * * * * * * * * * * * * * * * * * * * * * * * * * * * * * * * * * * * * //

dimensions      [0 2 -2 0 0 0 0];

internalField   nonuniform List<scalar> 
700
(
0.000219886
0.000219886
0.000219886
0.000219886
0.000219886
0.000219886
0.000219886
0.000219886
0.000219886
0.000219886
0.000219886
0.000219886
0.000219886
0.000219886
0.000219886
0.000219886
0.000219886
0.000219886
0.000219886
0.000219886
0.000219886
0.000219886
0.000219886
0.000219886
0.000219886
0.000219886
0.000219886
0.000219886
0.000219886
0.000219886
0.000219886
0.000219886
0.000219886
0.000219886
0.000219886
0.000219886
0.000219886
0.000219886
0.000219886
0.000219886
0.000219886
0.000219886
0.000219886
0.000219886
0.000219886
0.000219886
0.000219886
0.000219886
0.000219886
0.000219886
0.000219886
0.000219886
0.000219886
0.000219886
0.000219886
0.000219886
0.000219886
0.000219886
0.000219886
0.000219886
0.000219886
0.000219886
0.000219886
0.000219886
0.000219886
0.000219886
0.000219886
0.000219885
0.000219885
0.000219885
0.000219903
0.000219898
0.000219892
0.000219888
0.000219887
0.000219886
0.000219885
0.000219884
0.000219882
0.000219879
0.00022022
0.000220104
0.000219995
0.00021993
0.000219901
0.000219888
0.000219877
0.000219856
0.000219817
0.00021977
0.000224758
0.000222649
0.000221134
0.000220354
0.000220024
0.000219882
0.000219761
0.000219545
0.000219103
0.000218241
0.000244611
0.000232528
0.000225095
0.000221817
0.000220445
0.000219799
0.00021933
0.000218848
0.000218337
0.000218181
0.000238984
0.000233439
0.000226955
0.00022322
0.000221297
0.000220341
0.000219785
0.000219313
0.000218786
0.000218324
0.000231008
0.000230657
0.000226818
0.00022397
0.000222116
0.000221007
0.000220355
0.000219913
0.00021951
0.000219078
0.000221543
0.000225092
0.00022427
0.000223161
0.000222132
0.000221324
0.000220748
0.000220346
0.000220034
0.000219732
0.000211824
0.000217758
0.000219609
0.000220459
0.000220729
0.000220702
0.000220553
0.000220376
0.000220205
0.000220036
0.000203469
0.0002103
0.00021402
0.000216482
0.000218043
0.000218981
0.00021951
0.000219782
0.000219904
0.000219938
0.000198116
0.000204801
0.000209452
0.000212849
0.000215271
0.00021695
0.000218079
0.000218815
0.000219277
0.000219555
0.000196944
0.000203036
0.000207796
0.00021139
0.000214052
0.000215981
0.000217345
0.000218286
0.000218918
0.000219331
0.000200472
0.00020574
0.00020983
0.000212886
0.000215134
0.000216759
0.000217908
0.000218708
0.000219257
0.000219635
0.000209095
0.000212233
0.000214498
0.00021623
0.000217517
0.000218449
0.000219117
0.000219607
0.000219995
0.000220348
0.00021705
0.000216796
0.000217352
0.000218055
0.000218681
0.000219172
0.000219537
0.000219804
0.000220002
0.000220139
0.000218328
0.000218343
0.000218565
0.000218884
0.000219201
0.00021947
0.00021968
0.000219836
0.000219948
0.000220019
0.000219106
0.000219138
0.000219237
0.00021938
0.000219531
0.000219667
0.000219776
0.000219859
0.000219918
0.000219953
0.000219526
0.000219545
0.000219589
0.000219651
0.000219718
0.000219781
0.000219834
0.000219874
0.000219902
0.000219919
0.000219734
0.000219743
0.000219761
0.000219786
0.000219814
0.000219841
0.000219864
0.000219882
0.000219894
0.000219901
0.000219828
0.000219831
0.000219838
0.000219847
0.000219858
0.000219869
0.000219878
0.000219885
0.00021989
0.000219893
0.000219866
0.000219868
0.00021987
0.000219873
0.000219876
0.00021988
0.000219883
0.000219886
0.000219888
0.000219889
0.000219881
0.000219881
0.000219881
0.000219882
0.000219883
0.000219884
0.000219885
0.000219886
0.000219887
0.000219887
0.000219885
0.000219885
0.000219885
0.000219885
0.000219885
0.000219886
0.000219886
0.000219886
0.000219886
0.000219886
0.000219886
0.000219886
0.000219886
0.000219886
0.000219886
0.000219886
0.000219886
0.000219886
0.000219886
0.000219886
0.000219886
0.000219886
0.000219886
0.000219886
0.000219886
0.000219886
0.000219886
0.000219886
0.000219886
0.000219886
0.000219886
0.000219886
0.000219886
0.000219886
0.000219886
0.000219886
0.000219886
0.000219886
0.000219886
0.000219886
0.000219886
0.000219886
0.000219886
0.000219886
0.000219886
0.000219886
0.000219886
0.000219886
0.000219886
0.000219886
0.000219886
0.000219886
0.000219886
0.000219886
0.000219886
0.000219886
0.000219886
0.000219886
0.000219886
0.000219886
0.000219886
0.000219886
0.000219886
0.000219886
0.000219886
0.000219886
0.000219886
0.000219886
0.000219886
0.000219886
0.000219886
0.000219886
0.000219886
0.000219886
0.000219886
0.000219886
0.000219886
0.000219886
0.000219886
0.000219886
0.000219886
0.000219886
0.000219886
0.000219886
0.000219886
0.000219886
0.000219886
0.000219886
0.000219886
0.000219886
0.000219886
0.000219886
0.000219886
0.000219886
0.000219886
0.000219886
0.000219886
0.000219886
0.000219886
0.000219886
0.000219886
0.000219886
0.000219886
0.000219886
0.000219886
0.000219886
0.000219886
0.000219886
0.000219886
0.000219886
0.000219886
0.000219886
0.000219886
0.000219886
0.000219886
0.000219886
0.000219886
0.000219886
0.000219886
0.000219886
0.000220357
0.000220431
0.000220513
0.000220586
0.000220638
0.000220661
0.000220657
0.000220622
0.000220565
0.000220501
0.000220214
0.000220288
0.000220356
0.00022039
0.000220373
0.000220309
0.000220208
0.000220085
0.000219952
0.000219813
0.000220157
0.000220209
0.000220242
0.00022023
0.000220169
0.000220068
0.000219945
0.000219812
0.000219675
0.000219536
0.000220159
0.000220197
0.000220198
0.000220156
0.000220078
0.000219981
0.000219882
0.000219791
0.000219713
0.000219653
0.000220234
0.000220279
0.000220252
0.000220178
0.000220083
0.000219991
0.000219917
0.000219868
0.000219852
0.00021988
0.000220407
0.00022051
0.000220458
0.000220328
0.000220185
0.000220063
0.000219974
0.000219919
0.000219898
0.000219918
0.000220716
0.000220987
0.000220912
0.000220683
0.000220432
0.000220215
0.000220042
0.000219898
0.000219763
0.000219633
0.000221219
0.000221863
0.000221775
0.000221382
0.000220935
0.000220525
0.000220142
0.000219737
0.000219274
0.000218815
0.000222016
0.000223374
0.000223271
0.00022263
0.000221885
0.000221142
0.000220323
0.000219263
0.00021788
0.000216553
0.000222859
0.000225867
0.000226036
0.000225354
0.000224474
0.000223486
0.000222136
0.000219869
0.0002158
0.000208592
0.000220194
0.000220132
0.000220085
0.000220068
0.000220081
0.000220113
0.000220133
0.000220053
0.000219631
0.000218167
0.000220045
0.000220027
0.00022
0.000219976
0.000219956
0.000219929
0.000219868
0.000219727
0.000219446
0.000219035
0.000219966
0.000219958
0.000219941
0.000219918
0.00021989
0.000219849
0.000219783
0.000219678
0.000219534
0.000219395
0.000219924
0.000219919
0.000219908
0.00021989
0.000219866
0.000219831
0.000219782
0.000219718
0.000219646
0.000219592
0.000219903
0.0002199
0.000219892
0.00021988
0.000219863
0.000219839
0.000219809
0.000219773
0.000219737
0.000219713
0.000219893
0.000219891
0.000219886
0.000219879
0.000219868
0.000219854
0.000219837
0.000219818
0.0002198
0.00021979
0.000219889
0.000219887
0.000219885
0.00021988
0.000219875
0.000219867
0.000219858
0.000219848
0.00021984
0.000219835
0.000219887
0.000219886
0.000219885
0.000219882
0.000219879
0.000219876
0.000219871
0.000219867
0.000219863
0.000219861
0.000219886
0.000219886
0.000219885
0.000219884
0.000219882
0.000219881
0.000219879
0.000219876
0.000219875
0.000219874
0.000219886
0.000219886
0.000219885
0.000219885
0.000219884
0.000219883
0.000219882
0.000219881
0.00021988
0.00021988
0.000219886
0.000219886
0.000219886
0.000219886
0.000219885
0.000219885
0.000219885
0.000219885
0.000219885
0.000219885
0.000219886
0.000219886
0.000219886
0.000219886
0.000219886
0.000219886
0.000219886
0.000219886
0.000219886
0.000219886
0.000219886
0.000219886
0.000219886
0.000219886
0.000219886
0.000219886
0.000219886
0.000219886
0.000219886
0.000219886
0.000219886
0.000219886
0.000219886
0.000219886
0.000219886
0.000219886
0.000219886
0.000219886
0.000219886
0.000219886
0.000219886
0.000219886
0.000219886
0.000219886
0.000219886
0.000219886
0.000219886
0.000219886
0.000219886
0.000219886
0.000219886
0.000219886
0.000219886
0.000219886
0.000219886
0.000219886
0.000219886
0.000219886
0.000219886
0.000219886
0.000219886
0.000219886
0.000219886
0.000219886
0.000219886
0.000219886
0.000219886
0.000219886
0.000219886
0.000219886
0.000219886
0.000219886
0.000219886
0.000219886
0.000219886
0.000219886
0.000219886
0.000219886
0.000219886
0.000219886
0.000219886
0.000219886
0.000219886
0.000219886
0.000219886
0.000219886
0.000219886
0.000219886
0.000219886
0.000219886
0.000219886
0.000219886
0.000219886
0.000219886
0.000219886
0.000219886
0.000219886
0.000219886
0.000219886
0.000219886
)
;

boundaryField
{
    defaultFaces
    {
        type            empty;
    }
}


// ************************************************************************* //
