/*--------------------------------*- C++ -*----------------------------------*\
  =========                 |
  \\      /  F ield         | OpenFOAM: The Open Source CFD Toolbox
   \\    /   O peration     | Website:  https://openfoam.org
    \\  /    A nd           | Version:  11
     \\/     M anipulation  |
\*---------------------------------------------------------------------------*/
FoamFile
{
    format      ascii;
    class       volScalarField;
    location    "7";
    object      nut;
}
// * * * * * * * * * * * * * * * * * * * * * * * * * * * * * * * * * * * * * //

dimensions      [0 2 -1 0 0 0 0];

internalField   nonuniform List<scalar> 
700
(
0.000137568
0.000137568
0.000137568
0.000137568
0.000137568
0.000137568
0.000137568
0.000137568
0.000137568
0.000137568
0.000137568
0.000137568
0.000137568
0.000137568
0.000137568
0.000137568
0.000137568
0.000137568
0.000137568
0.000137568
0.000137568
0.000137568
0.000137568
0.000137568
0.000137568
0.000137568
0.000137568
0.000137568
0.000137568
0.000137568
0.000137568
0.000137568
0.000137568
0.000137568
0.000137568
0.000137568
0.000137568
0.000137568
0.000137568
0.000137568
0.000137568
0.000137568
0.000137568
0.000137568
0.000137568
0.000137568
0.000137568
0.000137568
0.000137568
0.000137568
0.000137568
0.000137568
0.000137568
0.000137568
0.000137568
0.000137568
0.000137568
0.000137568
0.000137568
0.000137568
0.000137569
0.000137569
0.000137568
0.000137568
0.000137568
0.000137568
0.000137568
0.000137568
0.000137568
0.000137568
0.000137582
0.000137578
0.000137573
0.00013757
0.000137569
0.000137568
0.000137568
0.000137567
0.000137565
0.000137563
0.000137814
0.000137733
0.000137653
0.000137604
0.00013758
0.00013757
0.000137561
0.000137544
0.000137517
0.000137485
0.000140935
0.000139538
0.000138492
0.000137928
0.000137677
0.000137562
0.000137467
0.000137309
0.000137008
0.000136452
0.000153759
0.000146051
0.000141199
0.000138973
0.000137993
0.00013751
0.000137165
0.000136827
0.000136482
0.000136369
0.000150161
0.000146634
0.000142437
0.000139942
0.000138607
0.000137912
0.000137496
0.000137152
0.000136786
0.000136471
0.000144895
0.000144723
0.00014229
0.000140429
0.000139175
0.000138397
0.000137918
0.000137587
0.00013729
0.000136985
0.000138626
0.000140948
0.000140493
0.000139814
0.000139151
0.000138608
0.000138205
0.000137911
0.000137678
0.000137454
0.00013224
0.00013605
0.000137303
0.000137909
0.000138126
0.000138133
0.000138045
0.000137927
0.000137805
0.000137681
0.000126806
0.000131141
0.000133554
0.000135183
0.000136241
0.000136895
0.000137275
0.000137479
0.000137574
0.000137604
0.000123357
0.000127566
0.000130534
0.000132737
0.000134337
0.00013547
0.000136249
0.000136769
0.000137105
0.000137313
0.000122625
0.000126443
0.000129459
0.00013177
0.000133511
0.000134798
0.000135729
0.000136385
0.000136837
0.000137142
0.000124916
0.000128217
0.000130808
0.000132774
0.000134247
0.000135333
0.000136118
0.000136673
0.000137058
0.000137322
0.000130445
0.000132421
0.000133873
0.000135005
0.000135864
0.000136496
0.00013695
0.000137272
0.000137503
0.000137678
0.000135533
0.00013539
0.000135767
0.000136245
0.000136675
0.000137017
0.00013727
0.00013745
0.000137574
0.000137653
0.000136417
0.000136437
0.000136597
0.000136822
0.000137047
0.00013724
0.00013739
0.000137499
0.000137574
0.00013762
0.00013697
0.000136998
0.000137073
0.000137179
0.00013729
0.00013739
0.000137471
0.000137532
0.000137573
0.000137598
0.000137281
0.000137297
0.000137332
0.00013738
0.000137432
0.00013748
0.000137521
0.000137551
0.000137572
0.000137585
0.000137442
0.000137449
0.000137464
0.000137485
0.000137507
0.000137529
0.000137547
0.000137562
0.000137571
0.000137577
0.000137517
0.000137521
0.000137527
0.000137535
0.000137544
0.000137553
0.00013756
0.000137566
0.00013757
0.000137573
0.00013755
0.000137551
0.000137553
0.000137556
0.00013756
0.000137563
0.000137566
0.000137568
0.00013757
0.00013757
0.000137563
0.000137563
0.000137564
0.000137565
0.000137566
0.000137567
0.000137568
0.000137568
0.000137569
0.000137569
0.000137567
0.000137567
0.000137567
0.000137567
0.000137568
0.000137568
0.000137568
0.000137568
0.000137569
0.000137569
0.000137568
0.000137568
0.000137568
0.000137568
0.000137568
0.000137568
0.000137568
0.000137568
0.000137568
0.000137568
0.000137568
0.000137568
0.000137568
0.000137568
0.000137568
0.000137568
0.000137568
0.000137568
0.000137568
0.000137568
0.000137568
0.000137568
0.000137568
0.000137568
0.000137568
0.000137568
0.000137568
0.000137568
0.000137568
0.000137568
0.000137568
0.000137568
0.000137568
0.000137568
0.000137568
0.000137568
0.000137568
0.000137568
0.000137568
0.000137568
0.000137568
0.000137568
0.000137568
0.000137568
0.000137568
0.000137568
0.000137568
0.000137568
0.000137568
0.000137568
0.000137568
0.000137568
0.000137568
0.000137568
0.000137568
0.000137568
0.000137568
0.000137568
0.000137568
0.000137568
0.000137568
0.000137568
0.000137568
0.000137568
0.000137568
0.000137568
0.000137568
0.000137568
0.000137568
0.000137568
0.000137568
0.000137568
0.000137568
0.000137568
0.000137568
0.000137568
0.000137568
0.000137568
0.000137568
0.000137568
0.000137568
0.000137568
0.000137568
0.000137568
0.000137568
0.000137568
0.000137568
0.000137568
0.000137568
0.000137568
0.000137568
0.000137568
0.000137568
0.000137568
0.000137568
0.000137568
0.000137568
0.000137568
0.000137568
0.000137568
0.000137568
0.000137568
0.000137568
0.000137568
0.000137568
0.000137568
0.000137568
0.000137568
0.000137568
0.000137568
0.000137743
0.000137761
0.000137779
0.000137794
0.000137801
0.000137801
0.000137794
0.000137779
0.000137758
0.000137733
0.000137719
0.000137736
0.000137748
0.000137746
0.000137728
0.000137692
0.000137643
0.000137583
0.000137515
0.00013744
0.000137721
0.000137734
0.000137736
0.000137718
0.00013768
0.000137624
0.000137555
0.000137476
0.00013739
0.000137295
0.000137748
0.000137762
0.000137753
0.000137722
0.000137673
0.000137614
0.000137552
0.000137491
0.000137435
0.000137389
0.000137815
0.000137842
0.000137821
0.00013777
0.000137706
0.000137644
0.000137592
0.000137556
0.000137542
0.000137562
0.000137942
0.000138014
0.000137981
0.000137893
0.000137793
0.000137705
0.000137639
0.000137597
0.000137579
0.000137593
0.000138154
0.000138343
0.000138301
0.000138149
0.000137975
0.000137819
0.00013769
0.00013758
0.000137477
0.000137382
0.000138487
0.000138924
0.000138883
0.000138628
0.000138325
0.000138037
0.000137759
0.000137461
0.000137128
0.00013681
0.000139001
0.0001399
0.00013986
0.000139454
0.000138959
0.000138448
0.000137872
0.000137132
0.000136198
0.000135339
0.000139538
0.00014148
0.000141618
0.000141188
0.000140605
0.000139928
0.000138998
0.000137475
0.000134847
0.000130337
0.000137693
0.000137688
0.000137684
0.00013769
0.000137711
0.000137741
0.000137763
0.000137722
0.000137464
0.000136552
0.000137641
0.000137642
0.000137636
0.000137629
0.000137623
0.000137611
0.000137577
0.000137493
0.00013732
0.000137064
0.000137609
0.000137609
0.000137602
0.000137591
0.000137575
0.00013755
0.00013751
0.000137445
0.000137355
0.000137269
0.00013759
0.000137588
0.000137582
0.000137571
0.000137556
0.000137533
0.000137502
0.000137461
0.000137415
0.000137381
0.000137579
0.000137577
0.000137572
0.000137564
0.000137552
0.000137536
0.000137516
0.000137492
0.000137469
0.000137453
0.000137573
0.000137571
0.000137568
0.000137563
0.000137555
0.000137545
0.000137533
0.00013752
0.000137508
0.000137501
0.00013757
0.000137569
0.000137567
0.000137564
0.00013756
0.000137554
0.000137548
0.000137541
0.000137535
0.000137531
0.000137569
0.000137568
0.000137567
0.000137566
0.000137563
0.00013756
0.000137557
0.000137554
0.000137551
0.000137549
0.000137569
0.000137568
0.000137568
0.000137567
0.000137566
0.000137564
0.000137563
0.000137561
0.00013756
0.000137559
0.000137568
0.000137568
0.000137568
0.000137567
0.000137567
0.000137566
0.000137565
0.000137564
0.000137564
0.000137563
0.000137568
0.000137568
0.000137568
0.000137568
0.000137568
0.000137568
0.000137568
0.000137568
0.000137568
0.000137568
0.000137568
0.000137568
0.000137568
0.000137568
0.000137568
0.000137568
0.000137568
0.000137568
0.000137568
0.000137568
0.000137568
0.000137568
0.000137568
0.000137568
0.000137568
0.000137568
0.000137568
0.000137568
0.000137568
0.000137568
0.000137568
0.000137568
0.000137568
0.000137568
0.000137568
0.000137568
0.000137568
0.000137568
0.000137568
0.000137568
0.000137568
0.000137568
0.000137568
0.000137568
0.000137568
0.000137568
0.000137568
0.000137568
0.000137568
0.000137568
0.000137568
0.000137568
0.000137568
0.000137568
0.000137568
0.000137568
0.000137568
0.000137568
0.000137568
0.000137568
0.000137568
0.000137568
0.000137568
0.000137568
0.000137568
0.000137568
0.000137568
0.000137568
0.000137568
0.000137568
0.000137568
0.000137568
0.000137568
0.000137568
0.000137568
0.000137568
0.000137568
0.000137568
0.000137568
0.000137568
0.000137568
0.000137568
0.000137568
0.000137568
0.000137568
0.000137568
0.000137568
0.000137568
0.000137568
0.000137568
0.000137568
0.000137568
0.000137568
0.000137568
0.000137568
0.000137568
0.000137568
0.000137568
0.000137568
0.000137568
)
;

boundaryField
{
    defaultFaces
    {
        type            empty;
    }
}


// ************************************************************************* //
