/*--------------------------------*- C++ -*----------------------------------*\
  =========                 |
  \\      /  F ield         | OpenFOAM: The Open Source CFD Toolbox
   \\    /   O peration     | Website:  https://openfoam.org
    \\  /    A nd           | Version:  11
     \\/     M anipulation  |
\*---------------------------------------------------------------------------*/
FoamFile
{
    format      ascii;
    class       volScalarField;
    location    "2.4";
    object      gradTy;
}
// * * * * * * * * * * * * * * * * * * * * * * * * * * * * * * * * * * * * * //

dimensions      [0 -1 0 1 0 0 0];

internalField   nonuniform List<scalar> 
5712
(
11573.4
6673.38
18773.8
12300.7
20476.2
15154.3
32161.1
39832.3
42267.3
51693.5
27327.8
23737.2
17362.2
13754.1
8712.48
5892.22
19458.5
19930.8
16748.2
19689.7
26284.2
23500.6
30296.1
24548.8
8182.38
5905.5
4593.77
3411.77
9803
7989.82
5938.39
4792.89
17743.7
18452.3
18156.7
15381.2
14189.5
11053.1
11097.8
12594.1
17891.8
17793.9
37474
38728.7
26593.3
27377.2
15123.6
12754.9
16504.6
11773.9
7677.56
7872.41
6253.9
8643
3269.16
3910.16
8581.11
11623.7
5100.92
5920.99
9533.8
15829.6
6595.87
10733.1
2520.41
6393.33
2095.8
4776.17
17600.1
21724.3
18117.5
21607.1
21547
21778.5
21899.5
21470.5
15389.5
20830.5
15857.2
20591.8
17825.1
21442.6
17806.7
21383.2
22053.4
21177.1
21963.3
20965
14205
20908.4
13705.3
20977.3
17254.2
20152.6
21792.4
30263
18262
23194.7
21585.9
32771.3
16366.5
17775.3
21888.1
29144.5
16195.4
16650.1
22127.7
28947.2
5055.93
6576.6
12864
22291.6
6303.22
7138.31
16641.7
25480.9
7901.56
7971.65
21206.6
28652.4
24200.3
26091.7
20379.7
19596.5
28122.6
26307.2
24768.6
20818.9
17995
32023.9
23953.5
23580.8
20932
20674.4
36781.4
1973.52
2362.84
4195.66
9419.09
2811.89
3165.12
5841.61
10646.7
4222.54
3570.04
8000.19
12335.2
26140.8
25997
23515.5
23296.2
20036.6
18507.2
15129
13453.6
10584.4
14577.6
23755.2
23081.1
23870.1
23613.6
20667.7
19466.8
17017.1
15301.9
11310.3
14794.2
23582.6
26599.1
23494
27220.1
22861.4
23741.6
22290.6
23863.4
21362.6
21751.6
21194.9
21134
23299.1
27321.3
23181.5
27283.3
21623.6
24133.1
21433.4
24063.9
21444.4
21703.1
21432
21684.7
17921.5
17045.1
11534
12794.7
17788
16582.2
11348.9
12799.8
18179.7
17005.1
11791.1
12868.5
18254.3
16836.5
12160.5
12886.3
1627.88
1122.46
789.977
956.288
673.035
630.505
2256.1
1384.41
1063.08
1897.43
1546.99
1349.48
2656.03
2267.22
2298.09
3348.95
2777.56
2513.78
25085.3
22904.9
21337.9
23013
21554.1
20334.8
16473.5
15453.2
14898
11120
9779.1
9218.25
5095.56
3824.45
3269.19
22631.4
21199
19911.8
23137.3
21333.3
19877.4
17073.1
14869.9
13607.5
11096.7
9021.93
8179.32
5426.77
3813.11
3088.85
26729
26228.5
29058.7
26142
29902.3
26158.2
36033
27492.8
20762.1
21154.3
20481.4
19049.1
23296.1
22012.1
22838.8
19555.3
22597.1
22484.4
20856.4
22373.2
27898.8
24974.7
27495.9
27894.3
29810.3
30805.6
22898.6
23746.9
20531.3
19920.2
24982.2
25607.4
16342.5
8708.02
15237.6
9654.98
16578
8785.11
15181.5
9587.65
16371.4
8835.71
15154.5
9999.78
14722.4
10466.9
14890.7
10380.1
21047.7
18071.9
20874.1
18013.1
23199.2
21013
23376
20769.2
20469.6
15078.4
21411.6
14909.9
21300.1
17906.9
21550.9
17697
23938.5
20575.5
23936
20302
20235
15106.8
20159.2
15009.2
13430.5
8867.7
11936.4
7496.45
12544
7935.28
11489.6
6992.73
13742.1
9431.6
12117.3
7728.35
13750.4
9782.01
12081.7
7782.53
2528.33
1296.02
4544.53
2293.93
2708.44
1616.84
4851.95
2808.32
3360.19
2492.25
5401.06
3786.18
13173.7
20333.1
9478.92
9079.91
6300.2
19967.4
13970.3
8192.96
8228.41
5148.37
20698.2
16367.6
13049.3
10138.7
6105.74
670.704
512.11
1183.58
812.793
996.121
689.533
1810.29
1412.97
1794.04
1434.6
2784.66
2247.96
20373.6
19923.2
13904.5
13517.9
9075.09
9331.53
7634.59
7189.93
4375.26
3590.72
19056.9
17516.2
14872.2
13257.2
11639
10548.7
8836.78
8183.25
5394.99
5508.85
15180.4
12502.8
15237.3
12156.6
18125
15214.2
18039.1
14937.2
12843.1
10640.4
12484.1
10717.8
15217.6
11939.4
15116.9
11913.1
17945.2
15183.8
17762.5
15126.9
13059.3
10452
13034.2
10590.9
10007.4
8683.52
6430.82
7019.49
9659.11
8522.38
6122.79
6668.67
10430.5
8847.42
6595.84
7450.04
10686.3
8850.63
6866.32
7560.97
1983.7
1758.15
1461
8725.87
4655.01
3808.39
1914.52
1906.93
1700.26
9409.63
5483.51
4656.77
2612.43
2957.81
3046.08
10315.5
6834.13
6106.67
19025.8
18008.7
17225.3
13213.1
12992.3
12821.9
9784.62
9807.32
9865.54
8553.79
8375.51
8216.67
11663.5
8413.1
7635.07
16184.3
15136.1
14394.2
12261.7
11599.5
11203.7
10381.1
9792.29
9429.81
10181.4
9149.59
8522.85
14150
9484.56
8565.07
4715.71
2981.42
2206.1
1995.27
5357.76
3267.82
2338.74
2042.68
4734.18
2972.78
2209.39
2010.9
5477.05
3336.18
2382.34
2061.62
4706.11
2927.19
2199.43
1989.99
5584.12
3373.26
2421.48
2044.87
6034.39
3590.1
2494.19
2147.77
6223.83
3738.77
2584.77
2238.86
5031.91
3125.56
2284.11
2008.59
3981.89
2669.51
2063.55
1931.02
4353.63
2794.4
2110.81
1855.52
3622.28
2496.69
1972.76
1847.89
5484.25
3374.7
2408.96
2110.53
4194.85
2795.64
2122.23
1997.57
5738.18
3542.67
2495.68
2179.94
4284.75
2884.85
2169.04
2031.76
3451.06
2504.93
1983.84
1886.1
2037.6
1926.17
1710.94
1770.26
3451.64
2485.65
1977.1
1879.9
2141.52
1953.93
1721.12
1780.13
3529.07
2474.4
1978.3
1883.27
2475.4
2051.47
1759.19
1825.49
3453.93
2390.35
1927.23
1915.73
2757.81
2115.73
1804.22
1808.03
3138.08
2294.27
1868.19
1817.72
555.116
1449.63
1324.35
396.714
-1169.1
1178.81
1160.39
427.825
809.179
1532.53
1356.07
419.961
-841.063
1272.32
1188.58
437.426
1283.39
1678.66
1407.14
418.892
-289.844
1429.16
1231.54
443.179
1857.3
1849.75
1475.63
456.398
285.234
1600.26
1290.76
463.109
2221.2
2002.27
1559.59
537.251
405.567
1724.79
1345.22
480.404
2370.62
2163.42
1600.1
507.999
3.69525
1844.33
1443.57
510.231
2312.22
2091.99
1569.53
508.709
-22.3624
1788.46
1394.51
492.603
2380.5
2214.01
1629.17
471.345
-76.0867
1893.32
1478.77
513.774
2435.5
2268.92
1677.22
483.046
29.3744
1950.54
1521.31
527.429
1924.36
1506.62
1059.12
625.088
206.365
1902.06
1503.5
1059.89
625.897
206.645
1947.75
1518.29
1064.93
627.827
207.169
1930.1
1518.45
1067.68
629.656
207.763
1991.49
1535
1072.49
631.299
208.183
1964.53
1536.41
1076.9
634.115
209.099
1995.67
1557.12
1089.13
640.381
211.018
2042.88
1587.15
1106.68
649.361
213.769
2036.78
1555.2
1083.42
636.73
209.831
2175.82
1580.23
1090.59
639.436
210.579
2046.28
1550.02
1078.12
633.701
208.866
2172.7
1571.24
1084.73
636.368
209.622
2056.1
1573.47
1094.4
642.392
211.574
2215.33
1597.95
1100.58
644.548
212.155
2101.9
1602.57
1110.9
650.77
214.141
2263.99
1623.89
1114.88
651.79
214.382
1978.78
1514.2
1059.08
624.439
206.118
2082.41
1522.62
1059.31
624.063
205.97
2000.63
1523.4
1063.39
626.424
206.692
2099.67
1529.53
1062.6
625.587
206.413
2044.94
1538.83
1070.21
629.54
207.594
2137.69
1542.11
1068.46
628.324
207.208
2118.37
1556.69
1077.12
632.599
208.472
2183.25
1555.66
1075.19
631.5
208.121
2188.43
1565.91
1081.04
634.425
209.008
9274.83
14215.7
9754.14
14527.8
10468
14944.7
10980.3
15235.1
10593.4
14711.4
9902.7
11140.5
9882.68
11620
9977.05
11075.4
10160.1
11225.2
8190.45
1400.06
298.462
66.783
11.803
9101.42
2587.17
626.961
141.931
25.0767
8291.55
1391.38
294.376
65.6053
11.5622
9201.18
2580.67
622.815
140.296
24.5722
8400.85
1389.79
291.423
64.6449
11.3668
9298.15
2578.29
618.628
138.797
24.269
8365.44
1353.84
281.234
62.2073
10.9288
9230.59
2534.55
605.703
135.629
23.6861
7976.64
1258.35
260.781
57.8446
10.1835
8783.08
2415.45
578.987
129.99
22.732
7165.62
1175.45
251.513
56.6889
10.055
7331.18
2113.66
519.883
118.614
20.936
7395.7
1193.63
252.378
56.5275
9.99415
7735.87
2226.05
542.734
122.856
21.5715
7082.26
1173.11
252.21
56.9858
10.1177
7204.21
2065.47
508.54
116.397
20.6024
7063.87
1165.43
250.394
56.6036
10.0417
7222.33
2056.2
505.018
115.872
20.4771
33130.6
46885.2
45833.6
32169.5
18999.6
19981.2
28015.2
29234.1
21888.5
24503
34765.3
47354.8
43919.6
58111.9
28703.6
32684.2
22552
24070.8
12251.3
13424.2
4937.79
3289.92
922.661
721.828
808.967
713.861
859.538
4862.8
4841.29
2941.59
4145.84
4001.64
1755.78
2402.46
2198.28
1464.67
1682.16
1388.82
4375.08
2416.36
1577.86
1401.19
1760.66
1533.29
1214.3
1155.48
1094.06
966.209
1293.59
1171.42
4560.21
2799.09
3202.52
2068.25
1719.96
2389.72
1240.07
988.711
1358.3
10081.2
10264
10576.6
12006.2
19987.7
7320.37
8474.32
9363.7
10615.6
12444.5
2430.63
3482.51
4291.48
4848.51
5138.44
1915.27
2771.83
3441.27
3901.5
4137.13
2143.49
3094.32
3830.37
4330.91
4584.75
1895.7
2746.15
3410.55
3865.49
4097.03
2272.44
3270.73
4040.88
4566.21
4834.63
10264.2
10656.5
10625.5
11394.3
18005.7
10188.5
10394.6
10178.8
10515.3
12067.5
6787.27
8106.12
8826.72
9509.02
10308.3
9001.43
9523.71
9361.98
9360.38
9635.95
8679.74
9258.07
9061.7
8895.59
8930.66
4389.97
5835.46
6773.07
7384.34
7727.68
5731.27
7137.92
7911.56
8431.79
8799.34
5310.04
6711.82
7471.26
7903.61
8134.58
3741.87
5122.08
6068.05
6675.98
6989.1
4222.8
5636.32
6540.52
7096.55
7379.4
3568.98
4923.16
5860.92
6457.73
6756.43
9417.84
10119.3
10394
11431.9
18288
5769.62
7248.57
8207.92
9056.36
9896.41
4004.53
5439.98
6430.36
7102.78
7486.28
3596.41
4967.21
5953.3
6634.06
7016.77
4403.93
5880.46
6902.75
7658.9
8170.11
3904.48
5343.02
6383.29
7138.97
7600.36
3151.13
4425.02
5381.77
6057.09
6432.8
3013.69
4255.84
5184.13
5819.69
6156.06
2865.06
4063.5
4952.72
5542.22
5839.53
2544.31
3639.29
4469.81
5028.86
5312.55
3346.19
4664.73
5612.23
6239.65
6565.68
3052.08
4301.07
5224.37
5846.93
6171.62
9549.73
10017
10377
11691.2
19199.7
6434.87
7766.61
8748.12
9890.01
11311.4
7470.46
8830.89
9593.96
10758.4
13172.1
5061.79
6602.86
7716.32
8685.75
9493.58
4322.85
5823.14
6909.39
7752.42
8328.29
5716.27
7222.79
8252.97
9216.53
10184.3
3215.65
4508.25
5470.4
6141.87
6511.48
2598.8
3709.44
4552.9
5126.5
5422.21
3496.45
4851.57
5841.57
6534.44
6926.05
18165.7
12055.1
18721.3
13360.2
24286.7
34627.8
25370.2
34448
19258.4
20393
16515.4
19689.5
21908.5
20856.3
27846
22864.2
13982.1
13034.5
6850.23
5831.41
15245.6
13901.8
7872.03
6411.31
18841.1
20376.8
19335.6
17661.3
19681.6
12967.7
10886.9
12552.5
17781.7
17755.6
36903.9
38600.3
25842.2
27170.4
15688.1
12873.4
17152.7
11885.7
8309.4
8023.87
13669.8
15101.2
5722.1
6231.13
15055.2
17142.1
7142.7
7873.84
14382.2
20043.4
8355.21
12853.6
2925.57
7120.48
2176.38
4917.79
17962
20551.2
17899.8
20918.9
19636.2
19932.6
20673.5
20433.3
16307.9
20642.3
18494.9
20350.5
17605.5
21072.9
17722.5
21263.2
21419.5
20645.3
21776
20800
14463
20780.4
13741.4
20928.3
18117.5
21384.8
22008.8
30598.8
19727.2
25291.4
22068.3
33498.9
16753.7
18362.1
21962.1
29285.1
16293.3
16811.6
22138.5
28982.7
18737.6
20249.9
23449.6
34733.3
18870.3
19323.5
25109.1
35204.1
18623.3
18309.8
27043.7
34964.6
18171
19088.8
19366.2
20550.4
30785.6
18357.1
17114.8
20685.9
18805.1
35159.3
19151.4
19931.1
19723.1
21315.2
38062.1
11311
10369.9
10441.8
13463.8
12378.2
11364.9
10824.2
13846.2
13617.1
11836.8
11331.1
14168.4
17827.2
17190.7
16693.8
16281.3
19213.5
18014.9
15841.7
14291.9
11876.5
14796
18837.5
18673.7
19910.6
20084.7
19056.7
17969
17246.4
15335.9
11705.1
14322.3
21664.2
24409.1
22516.2
26038
20527.7
21464.3
21160.8
22734.5
20821
21057
20275.8
20021.8
22818.3
26744.9
23034.8
27110.9
21092.8
23583.6
21275.7
23902.9
21149.1
21344.4
21338.2
21576.7
17772.1
16763.3
11559.9
12704.7
17676.6
16265.1
11517.8
12728.8
18069.2
16836.2
11778.6
12803.2
18214
16781.5
12151
12861.3
9509.14
9652.21
4080.98
3762.89
10607.5
10268.7
4573.04
4379.85
10341.9
9702.97
5210.47
5034.01
16984.6
16507
16526
16618.7
16439.1
15963.1
12336.9
11063.1
6141.28
5079.98
19035
18300.2
20275.4
19520.3
16058.9
14920.9
11515.3
9919.33
5652.24
4265.95
21902.8
20860.7
26801.7
23457.7
24337.8
21731.2
33261.2
25140
20041.5
16558.9
21800.8
17349.2
19929.8
16844.9
21896
17575.2
20446.2
18161.8
18537.2
17280
21086.5
22307.9
26140
27480.5
28658.5
30469.7
21544.7
23266.8
19491.5
19622.8
23457.4
25093.6
13511.4
9934.03
13927.7
10159.7
13794
9843.42
14110.3
10006.1
13733.1
9696.68
14071.1
10198.9
14098.7
10505.7
14688.8
10386
17186.8
16741.8
18946.3
17190.6
19658.1
18875.5
21486.3
19576.4
18664
14772
17777.2
14615.6
20341.1
17468.9
21265.2
17564
23013.8
19972.7
23667.2
20119.4
19341
14914.2
19899
14949.2
13025.3
9285.12
12142.8
7873.97
12494.2
9007
12095.8
7795.36
13425.7
9585.91
12181.9
7904.06
13638.5
9818.64
12098
7839.8
13055.5
13320.7
9320.91
8574.67
13205.8
13437.9
9173.52
8502.01
13178.4
12909.1
8939.34
8402.42
15269.4
17954.4
16106
11995.9
8687.86
16675.1
15663.6
17567
12076.6
8390.66
18381.4
16365.2
14580.2
12242.5
7725.59
14044
15403.8
8569.22
9352.41
13885.6
14965.7
8485.59
9211.95
12942.8
13584.6
8098.16
8304.68
16541.1
15752.8
15027.7
14564.7
15683.3
16264.1
12276.7
13228
7846.41
7730.14
16752
15446.8
15184.5
13999.2
13736.2
13293.5
11637.8
11811.6
7215.33
7863.07
14859.3
12861.1
14921.4
12272.6
16710.8
14287.1
17227.9
14455.3
13005.7
11206.4
13098.7
12000
15018.8
11988.8
15055
11926.4
17538.2
14946.9
17640.9
15059.3
13076.2
10698.1
13025.5
10653.2
10509.7
9487.49
6920.5
7760.62
10804.7
10198.5
7092.56
8158.6
10630.8
9206.95
6822.99
7848.12
10743.3
8956.08
6943.82
7686.59
18589.7
18567.2
25824.1
21651.4
17793.4
17912.9
24744.7
20682
15591.8
16309.9
22688.6
19216.9
15342.6
14874.8
14242
14109.9
16601.1
17134.1
15520.8
15561.3
20810
17608.2
14534.6
13898.7
13478.4
13374.4
13887.3
14306.8
15036.1
14748.1
20394.9
16217.9
6211.77
3985.23
2820.63
2433.1
6469.37
4129.98
2907.94
2453.3
6088.72
3905.15
2770
2409.62
6405.48
4082.41
2873.19
2417.39
5862.77
3746.54
2686.84
2335.4
6304.45
3973.65
2830.76
2343
6455.39
3967.65
2773.56
2361.68
6364.75
3869.99
2678.93
2313.27
5636.85
3597.56
2619.01
2272.61
4384.19
3003.77
2297.28
2128.89
5303.56
3464.83
2542.83
2174.77
4279.87
3012.26
2281.93
2081.41
5818.78
3656.49
2620.03
2280.59
4411.93
2983.87
2269.71
2133.23
5841.76
3637.06
2568.44
2239.59
4353.1
2946.11
2219.57
2078.41
5671.19
3709.84
2655.64
2352.64
4760.52
3302.18
2438.57
2266.13
5507.65
3626.34
2605.79
2314.46
4647.65
3255.36
2412.81
2254.45
5277.29
3490.93
2540.6
2275.97
4564.81
3195.01
2380.5
2252.55
4793.37
3242.79
2407.3
2258.1
4380.78
3093.24
2327.31
2151.12
4113.49
2992.38
2250.53
2077.19
3402.86
2885.91
1997.94
554.323
1284.57
2616.67
1844.94
623.41
3445.89
2885.27
1996.88
573.899
1466.6
2621.86
1841.82
625.588
3521.72
2866.11
1973.91
545.508
1719.15
2611.3
1817.36
610.609
3487.93
2812.98
1974.7
575.001
1758.59
2565.39
1795.93
609.759
3210.01
2702.28
1962.97
654.849
1212.95
2450.22
1757.18
605.375
2667.5
2457.9
1848.13
600.266
135.52
2156.32
1663.19
586.615
2861.78
2562.27
1903.04
616.862
326.489
2282.7
1704.65
592.133
2526.94
2374.93
1780.61
530.711
-34.9981
2062.63
1607.99
560.884
2477.28
2320.13
1727.36
503.24
34.8384
2003.43
1563.2
543
2269.34
1717.01
1178.01
684.803
224.461
2217.1
1703.22
1174.1
683.482
224.115
2268.18
1710.31
1173.29
682.247
223.661
2208.3
1692.92
1167.34
679.908
223.009
2284.18
1704.59
1167.72
679.082
222.662
2199.34
1681.11
1159.37
675.684
221.711
2157.38
1657.6
1146.62
669.408
219.831
2102.36
1625.05
1128.47
660.391
217.123
2252.59
1686.12
1157.17
673.783
221.064
2381.78
1696.89
1155.42
671.906
220.417
2320.74
1705.46
1164.72
677.075
222.004
2438.38
1711.33
1162.02
674.995
221.318
2198.75
1663.36
1145.39
668.072
219.366
2348.77
1677.08
1144.86
666.783
218.899
2151.33
1633.73
1128.67
659.742
216.871
2309.86
1651.45
1130.37
659.598
216.762
2370.26
1737.1
1182.65
686.176
224.802
2536.58
1755.17
1185.88
687.045
225.012
2375.07
1732.93
1179.33
684.331
224.216
2538.1
1751.46
1183.26
685.621
224.565
2394.04
1727.26
1174.08
681.403
223.29
2545.57
1744.25
1178.25
682.961
223.731
2446.4
1725.07
1169.37
678.621
222.399
2556.77
1733.71
1172.06
679.759
222.72
2502.16
1721.13
1166.14
676.889
221.86
11348.4
14930.5
11412.3
14944
11550.3
14954.5
11372.6
14784.4
10644.2
14072.1
9894.58
11071.3
9914.92
11498
9961.88
11032.7
10153.3
11210.6
8720.21
1450.14
304.532
67.6093
11.8989
9389.05
2653.47
638.459
143.693
25.2899
8687.14
1426.94
298.522
66.1469
11.6214
9352
2621.68
630.217
141.417
24.7003
8582.84
1402.57
292.544
64.7351
11.3668
9251.62
2582.51
620.005
138.974
24.2733
8349.52
1346.44
279.654
61.8833
10.8732
9026.11
2507.76
601.758
134.94
23.5735
7885.22
1243.63
258.092
57.3233
10.099
8549.1
2378.11
572.632
128.837
22.5515
7128.97
1168.33
249.856
56.3113
9.98902
7279.55
2097.23
515.791
117.703
20.7799
7341.63
1182.78
250.011
56.0217
9.90894
7640.89
2199.45
536.9
121.665
21.3775
7060.1
1168.98
251.235
56.7568
10.0768
7175.67
2056.47
506.193
115.85
20.5057
7056.36
1164.06
250.07
56.5267
10.0278
7212.88
2053.35
504.264
115.692
20.4448
32676.8
46578.8
44769.5
30806.5
24094.5
28669.8
23299.9
28561.4
26954.3
42692.2
28563.7
43706.1
244.371
261.529
299.773
361.67
451.631
574.817
258.865
276.474
315.566
378.248
467.528
586.953
233.433
228.039
251.663
248.107
292.422
293.146
358.907
367.943
454.423
474.287
578.885
601.831
737.293
945.602
1217.23
1579.01
1997.02
2297.79
740.032
929.19
1155.99
1411.36
1656.22
1815.16
654.316
959.995
1206.4
1379.03
1467.91
700.022
1026.54
1289.42
1473.38
1568.02
801.923
1174.89
1474.47
1683.71
1791.23
966.578
1414.04
1772.13
2021.57
2149.56
1205.15
1758.94
2199.76
2505.75
2662.54
1530
2224.76
2773.52
3153.02
3347.47
692.957
1016.35
1276.84
1459.22
1553.07
739.804
1084.4
1361.57
1555.38
1655.04
843.807
1235.48
1549.65
1768.88
1881.48
1010.26
1476.6
1849.15
2108.41
2241.42
1246.52
1817.15
2270.45
2584.96
2746.22
1560.75
2266.41
2822.79
3207.84
3405.58
625.082
917.266
1152.94
1318.11
1403.17
610.648
896.142
1126.49
1287.96
1371.12
673.701
988.166
1241.51
1418.88
1510.15
664.196
974.288
1224.17
1399.16
1489.2
782.394
1146.61
1439.37
1643.95
1749.1
784.341
1149.52
1443.1
1648.26
1753.7
959.418
1404.07
1760.19
2008.34
2135.66
983.535
1439.3
1804.26
2058.48
2188.86
1212.97
1771.14
2215.71
2524.24
2682.22
1265.83
1847.88
2311.08
2632.2
2796.45
1541.64
2243.21
2797.59
3180.42
3376.11
1602.66
2331.57
2906.74
3303.05
3505.15
1954.04
2823.92
3503.56
3972.62
4214.27
2487.74
3559.13
4384.43
4957.23
5258.64
3161.6
4447.57
5420.96
6113.4
6499.71
4011.82
5488.31
6585.83
7420.2
7952.45
4917.97
6473.02
7615.68
8589.95
9350.74
5541.69
7107.43
8257.09
9328.03
10273.6
1959.8
2829.54
3508.8
3978.71
4221.66
2445.73
3501.66
4316.91
4883.82
5182.11
3015.61
4266.58
5219.99
5893.44
6261.06
3637.44
5066.36
6141.6
6925.2
7380.97
4211.28
5766.61
6925.87
7807.51
8362.83
4575.58
6198.54
7404.17
8350.47
8978.68
247.252
270.282
314.908
383.977
482.131
614.613
261.818
285.431
330.924
400.548
497.247
624.104
236.344
231.056
260.575
257.39
307.97
309.477
382.16
392.715
486.628
508.372
622.508
649.221
785.824
998.743
1267.83
1616.97
2017.17
2303.49
783.276
975.107
1199.26
1445.85
1677.62
1822.28
662.049
971.417
1220.88
1395.7
1485.71
723.595
1061.45
1333.73
1524.45
1622.62
842.728
1235.46
1551.49
1772.62
1886.4
1026.85
1503.81
1886.73
2154.25
2291.8
1287.87
1882.88
2358.9
2690.88
2861.54
1638.56
2388.9
2986.19
3402.17
3616.33
700.899
1028.1
1291.78
1476.44
1571.48
763.956
1120.24
1407.14
1607.98
1711.32
885.267
1297.13
1628.22
1859.73
1978.8
1070.59
1566.64
1964.31
2241.96
2384.73
1327.19
1938.21
2426.15
2766.32
2941.31
1662.11
2419.72
3021.52
3440.77
3657.01
632.901
928.811
1167.55
1334.92
1421.12
618.749
908.101
1141.62
1305.35
1389.69
697.684
1023.65
1286.48
1470.65
1565.48
689.168
1011.21
1270.95
1452.99
1546.72
824.285
1208.72
1518.27
1734.95
1846.44
828.331
1214.72
1525.91
1743.75
1855.83
1022.22
1497.54
1879.41
2146.28
2283.49
1050.46
1538.95
1931.43
2205.69
2346.67
1300.34
1902.09
2383.93
2719.98
2892.65
1358.45
1987.11
2490.44
2841.35
3021.57
1660.76
2423.6
3031.63
3454.89
3672.44
1732.37
2528.73
3163.49
3605.03
3831.71
2087.68
3028.92
3772.8
4291.41
4560.29
2636.37
3792.28
4696.91
5332.96
5670.02
3307.23
4684.83
5749.08
6517.27
6948.03
4127.66
5689.63
6877.37
7791.6
8374.33
4986.67
6603.54
7813.81
8851.76
9657.49
5563.5
7151.94
8326.78
9422.39
10386.5
2078.66
3011.39
3747.13
4260.46
4527.25
2573.34
3700.08
4580.87
5199.5
5526.76
3137.91
4461.17
5484.08
6214.19
6614.43
3737.33
5230.24
6369.53
7207.31
7695.49
4275.23
5875.08
7080.29
8002.15
8582.68
4597.35
6236.3
7458.69
8419.99
9057.87
4919.28
3288.94
986.128
776.43
883.181
774.624
929.565
4533.66
4380.61
2881.35
3632.04
1818.97
2378.53
1545.93
1705.94
1453.98
4228.25
2437.85
1657.76
1483.24
1828.25
1602.61
1277.74
1233.75
1191.85
1056.94
1384.37
1258.43
4506.07
2805.31
3172.12
2100.85
1774.13
2414.59
1312.18
1066.18
1435.34
10079.6
10319.4
10683.3
12180.6
20308.4
7335.27
8524.51
9453.01
10748
12617.8
2608.86
3763.76
4670.33
5305.47
5639.41
2065.81
3003.25
3745.85
4262.63
4529.32
2349.66
3414.85
4256.76
4840.61
5140.81
2063.33
3004.05
3750.28
4268.55
4534.93
2468.23
3577.8
4452.23
5060.2
5374.72
10056
11310.4
12100.7
13655.4
21576.5
9930.43
11405
12400
13802.9
16193
6903.45
8787.27
10167.5
11450.7
12656.2
8734.61
10640.5
11742.3
12881.3
13871.7
4667.95
6467.1
7809.81
8778.13
9335.2
5913.48
7865.64
9275.17
10362
11073.3
4029.82
5695.83
6961.09
7846.91
8324.18
4419.09
6193.28
7524.45
8459.8
8970.93
3809.03
5418.4
6648.08
7501.66
7952.56
9333.07
10513.5
11316.5
12873
20679.5
5954.89
7773.18
9134.11
10357.1
11458.5
4283.41
5989.47
7282.15
8219.47
8761.84
3855.51
5435.21
6646.31
7521.56
8020.24
4650.47
6382.14
7693.36
8708.51
9383.09
4125.74
5746.99
6986.36
7917.33
8486.23
3336.83
4734.07
5816.04
6596.96
7034.93
3242.9
4637.68
5720.7
6485.44
6896.54
3150.08
4535.91
5614.53
6361.85
6750.15
2801.18
4049.35
5027.64
5706.34
6057.81
3629.65
5171.19
6356.82
7187.52
7632.24
3310.43
4738.42
5845.6
6622.29
7036.12
9546.4
10190.7
10716.6
12234.8
20195
6491.81
7920.13
9010.72
10266.3
11787.2
7523.42
9142.01
10204.7
11680.2
14420.9
5184.93
6856.8
8119.71
9231.74
10140.5
4502.07
6160.76
7423.18
8425.95
9104.52
5870.1
7625.69
8954.75
10205.5
11381.9
3429.5
4869.73
5983.82
6783.9
7229.16
2819.85
4065.8
5041.16
5722
6078.55
3733.14
5267.5
6447.69
7304.26
7793.45
9884
9308.5
8304.85
6905.8
5010.04
1959.22
18500.6
18847.8
21409.5
22076.7
18160.8
19278.3
20491.3
19876.1
15165.1
18620.3
15823.3
19181.9
18161.6
16385.9
25306.4
17808
18018.5
20231.7
20662.8
17211.9
18311.6
19614.3
19194.2
15109.7
22481.8
15684.1
22385.9
18341.6
19893.4
27152.6
17039.2
17124.1
18739.7
18932.1
16518
18007.1
18446.3
18511.6
17338.4
19927
18096.6
19949.9
19925.7
21891.2
24483.6
16321.1
16424.6
17406.5
17444.3
16126.4
17849.8
17280.3
17614.3
16280.4
17459.9
17013.2
17035.6
18258
19736.7
21216.7
15564.7
15701.2
16510.2
16465.9
15862.2
17740.7
16527.9
17045
15444.4
14456.1
16204.4
13901.6
16831.1
16700.8
17587.4
15239
15417.2
15921.3
15845.5
15510.7
17074.2
16050.2
16488.7
14771.6
12468.4
15343.6
12235.7
15696.7
14737.2
15970.4
21371.4
20563.6
22385.6
23497.2
19849
19855.1
20883.2
19968.9
18921.9
14073
18892.4
14156.8
16795.5
15264.2
18370.4
20202.5
19622.3
20722.3
21448.2
19199.9
19367.1
19731.3
18966.9
17595.9
13667.7
17592.9
13769.1
15449.3
13793.5
17062.4
18679.4
18342.1
18738.8
19084.8
18108.3
18288.7
18252.9
17801.1
16777
13473.3
16589
13217.2
14901.1
12664.7
16838.9
17266.7
17080.1
17243
17391.6
16933.2
17055.9
17085.5
16733.5
15931.7
13999.1
15837.5
13681.8
14393.7
12803
17272.1
16566.8
16447.3
16435
16499
16164.8
16281.6
16412
16198.2
15804.5
15167.6
15745.7
15023
14564.2
13380.6
17954.9
16067.6
15956.2
15979.5
16016
15721.5
16016.9
15931.7
15852.2
15765.1
15904.5
15766.1
15822.9
14710.8
13955.4
18725.6
11384.7
6459.91
18766.6
12307.8
20497.3
15141.9
32188.9
39846
42317.4
51718.4
27376.9
23737.7
17369.8
13779.8
8450.87
5623.24
19461.6
19933.1
16746.9
19690.7
26297.2
23506.3
30304.4
24553.1
8014.51
5788.42
4439.11
3309.16
9775.84
7980.22
5936.93
4806.26
17739.1
18447.7
18155.2
15381.6
14185.3
11056.1
11098.7
12595.6
17893.3
17795.5
37480.9
38733.4
26596.6
27379.5
15124.5
12756.3
16506.1
11775.3
7678.69
7873.5
6142.37
8506.13
3181.85
3813.89
8582.8
11635.7
5114.98
5937.37
9534.96
15835.6
6601.93
10740.8
2521.76
6396.3
2096.27
4777.31
17601.2
21725.3
18118.9
21608.1
21549.8
21780
21901.8
21471.7
15391.3
20831.6
15857.3
20592.7
17826.3
21443.6
17807.7
21384
22055.2
21177.9
21964.4
20965.6
14206.3
20909.6
13706.3
20978.5
17256.1
20156.2
21794.1
30265.5
18263.5
23198.5
21587.6
32774.2
16368.3
17778
21889.7
29146.8
16197.1
16652.3
22129.3
28949.4
4974.15
6496.21
12691.2
22103.4
6308.67
7142.09
16656.8
25499.2
7904.02
7973.71
21213.4
28659.4
24200.4
26092.5
20379.4
19597.6
28126.6
26307.7
24768.5
20818
17995.7
32028.1
23954.4
23581.4
20932.6
20675.9
36784.8
1933.05
2331.55
4109.72
9328.07
2816.24
3169.34
5852.95
10656.3
4224.52
3571.2
8003.91
12337.5
26141
25997
23515.3
23296.1
20035.9
18506.9
15129.8
13454.4
10586.3
14579
23755.5
23081.2
23870.3
23613.8
20668.1
19467.2
17018.2
15302.8
11311.5
14795.1
23583.2
26599.3
23494.6
27220.3
22862
23741.7
22291.1
23863.5
21363.4
21752.2
21195.6
21134.6
23299.6
27321.6
23181.9
27283.5
21623.9
24133.2
21433.7
24063.8
21445.2
21703.6
21432.7
21685.2
17922.4
17045.9
11534.7
12795.4
17789
16583
11349.8
12800.6
18180.6
17005.8
11791.8
12869.1
18255.2
16837.1
12161.2
12886.9
1605.55
1105
775.53
951.706
667.525
623.951
2262.69
1387.94
1064.69
1903.65
1550.97
1351.83
2656.61
2267.97
2298.92
3349.98
2778.96
2515.18
25085.4
22905.1
21338.3
23013.2
21554.7
20335.5
16473.8
15453.9
14898.8
11120.6
9779.93
9219.17
5096.23
3825.22
3269.92
22631.5
21199.3
19912.2
23137.5
21333.8
19878.1
17073.6
14870.5
13608.2
11097.3
9022.56
8179.99
5427.25
3813.56
3089.26
26733.4
26229.9
29061.8
26143.3
29916.3
26163.8
36045.4
27497.7
20587.4
21101.7
20275.9
18985.4
23265.8
21984.1
22805
19528.1
22591.9
22480.1
20856.3
22371.5
27882.2
24959.9
27496.9
27894.7
29813.9
30807.7
22896.8
23746
20530.4
19919.3
24974.9
25604
16347
8713.2
15235.8
9662.09
16559.4
8780.29
15165.7
9583.99
16359.3
8831.16
15144
9995.13
14716.5
10463.4
14887.6
10378
21046
18071.5
20873.1
18012.7
23201.2
21013.9
23377.8
20769.8
20464.4
15077.1
21404.8
14908.4
21299.6
17906.6
21550.4
17696.6
23939.8
20575.9
23936.6
20302.1
20231.9
15105.8
20157.3
15008.3
13427.4
8865.3
11934.7
7495.21
12540.7
7932.91
11487.7
6991.36
13739.9
9429.59
12116
7727.31
13748.8
9780.51
12080.6
7781.66
2515.56
1279.91
4530.06
2275.29
2708.93
1617.92
4851.89
2809.2
3359.34
2492.13
5399.56
3785.6
13174.3
20334.3
9478.57
9078.42
6298.76
19968.3
13970.6
8192.88
8227.33
5147.44
20699
16367.5
13048.3
10137.2
6104.57
652.956
490.842
1163.91
803.249
997.51
689.33
1810.54
1412.31
1794.34
1435.26
2784.61
2248.44
20373.9
19923.2
13904.3
13517.5
9074.76
9331.02
7633.96
7189.66
4374.76
3590.67
19057.2
17516.2
14872.1
13256.9
11638.3
10548.3
8835.93
8182.8
5394.23
5508.38
15180.1
12502.4
15237.1
12156.3
18125.4
15214.3
18039.3
14937.2
12842.4
10639.9
12483.3
10717.2
15217.3
11939.1
15116.6
11912.8
17945.3
15183.8
17762.5
15126.7
13058.7
10451.5
13033.6
10590.4
10006.6
8682.91
6430.06
7018.83
9658.12
8521.77
6121.97
6668.02
10429.8
8846.85
6595.18
7449.4
10685.6
8850.11
6865.73
7560.4
1948.61
1728.75
1437.42
8677.19
4611.86
3766.97
1911.62
1905.61
1700.27
9405.66
5483.32
4657.01
2613.12
2958.32
3046.5
10315.5
6834.68
6107.32
19025.7
18008.7
17225.3
13212.6
12991.9
12821.6
9784.01
9806.76
9865.09
8553.59
8375.3
8216.46
11663.1
8413.18
7635.28
16184.2
15136
14394.2
12261.4
11599.3
11203.5
10380.7
9792.02
9429.61
10181
9149.38
8522.72
14149.1
9484.33
8565.04
4715.98
2981.33
2206.11
1994.65
5356.31
3266.09
2337.92
2041.63
4733
2972.29
2209.04
2010.68
5476.39
3335.92
2382.12
2061.43
4704.84
2926.7
2199.11
1989.77
5582.85
3372.81
2421.2
2044.66
6033.12
3589.63
2493.93
2147.59
6222.85
3738.37
2584.55
2238.7
5030.89
3125.09
2283.83
2008.4
3981.21
2669.12
2063.31
1930.84
4352.64
2793.93
2110.53
1855.34
3621.58
2496.29
1972.51
1847.71
5483.28
3374.25
2408.7
2110.35
4194.24
2795.28
2122
1997.39
5737.38
3542.28
2495.46
2179.77
4284.22
2884.53
2168.84
2031.6
3450.11
2505.28
1984.4
1885.67
2035.24
1925.67
1711.38
1769.24
3450.82
2485.21
1976.76
1879.7
2140.87
1953.63
1720.87
1780.04
3528.21
2473.96
1978.01
1883.08
2474.78
2051.13
1758.94
1825.34
3453.15
2389.94
1926.96
1915.53
2757.18
2115.37
1803.98
1807.86
3137.42
2293.89
1867.94
1817.52
554.799
1449.18
1325.05
396.774
-1167.71
1177.38
1160.05
427.656
808.58
1532.41
1355.89
419.948
-841.766
1272.39
1188.6
437.457
1282.97
1678.42
1406.97
418.847
-290.122
1428.99
1231.45
443.155
1856.85
1849.44
1475.43
456.344
285.009
1600.01
1290.61
463.062
2220.73
2001.93
1559.38
537.186
405.354
1724.51
1345.04
480.347
2370.22
2163.1
1599.9
507.943
3.55475
1844.05
1443.38
510.171
2311.77
2091.66
1569.33
508.652
-22.5227
1788.16
1394.33
492.542
2380.15
2213.72
1628.99
471.297
-76.1984
1893.06
1478.6
513.719
2435.19
2268.67
1677.06
483.004
29.277
1950.31
1521.16
527.381
1922.87
1505.91
1058.82
624.953
206.325
1900.39
1502.62
1059.48
625.706
206.589
1947.68
1518.21
1064.88
627.806
207.163
1929.99
1518.37
1067.63
629.64
207.761
1991.38
1534.93
1072.44
631.28
208.178
1964.41
1536.33
1076.85
634.097
209.096
1995.55
1557.04
1089.08
640.359
211.013
2042.76
1587.07
1106.63
649.338
213.763
2036.64
1555.11
1083.37
636.708
209.825
2175.65
1580.14
1090.54
639.411
210.572
2046.14
1549.94
1078.08
633.68
208.86
2172.53
1571.15
1084.68
636.344
209.616
2055.95
1573.38
1094.35
642.368
211.568
2215.16
1597.86
1100.53
644.522
212.148
2101.76
1602.49
1110.85
650.745
214.134
2263.83
1623.8
1114.82
651.764
214.375
1977.25
1513.6
1058.83
624.333
206.087
2080.94
1522.12
1059.11
623.98
205.949
2000.61
1523.32
1063.35
626.406
206.689
2099.66
1529.45
1062.55
625.573
206.415
2044.85
1538.76
1070.16
629.522
207.59
2137.59
1542.03
1068.42
628.307
207.206
2118.23
1556.61
1077.07
632.578
208.466
2183.1
1555.58
1075.14
631.479
208.117
2188.27
1565.82
1081
634.402
209.002
9225.45
14160.4
9756.47
14529.5
10469.5
14945.6
10981.3
15235.7
10594.1
14711.9
9903.3
11141.1
9883.32
11620.6
9977.62
11076
10160.7
11225.8
8179.54
1390.7
296.053
66.2297
11.7052
9085.95
2581.36
625.298
141.534
25.0042
8289.08
1391.97
294.488
65.623
11.5645
9199.55
2580.06
622.601
140.236
24.5604
8400.28
1389.85
291.432
64.6433
11.366
9297.73
2578.08
618.549
138.771
24.2636
8365.5
1353.86
281.232
62.205
10.9281
9230.63
2534.51
605.677
135.619
23.6837
7976.91
1258.38
260.784
57.8444
10.1833
8783.32
2415.49
578.985
129.987
22.7311
7165.99
1175.51
251.524
56.6911
10.0554
7331.55
2113.76
519.903
118.618
20.9366
7396.04
1193.68
252.387
56.5289
9.99432
7736.2
2226.13
542.748
122.857
21.5716
7082.64