/*--------------------------------*- C++ -*----------------------------------*\
  =========                 |
  \\      /  F ield         | OpenFOAM: The Open Source CFD Toolbox
   \\    /   O peration     | Website:  https://openfoam.org
    \\  /    A nd           | Version:  11
     \\/     M anipulation  |
\*---------------------------------------------------------------------------*/
FoamFile
{
    format      ascii;
    class       volScalarField;
    location    "2.4";
    object      gradTz;
}
// * * * * * * * * * * * * * * * * * * * * * * * * * * * * * * * * * * * * * //

dimensions      [0 -1 0 1 0 0 0];

internalField   nonuniform List<scalar> 
5712
(
7141.85
23473
5664.25
24073.6
4258.43
24919.1
6734.68
38476.8
8279.5
52918.9
8210.52
38506.7
7912.6
31936.7
8223
28522.2
4975.14
3063.5
13298.4
7872.41
4881.91
2628.77
14586.3
7237.93
5423.36
3910.41
17400.4
12191.9
4100.18
2930.66
17118
12388.1
9611.17
4061.76
8285.3
3682.99
3796.71
8944.23
33373.2
9055.62
11938.9
4052.62
43055.8
11706.3
11207.9
3894.03
23791.3
7390.15
12202.2
4264.91
20648.4
6572.35
5687.34
2819.76
8514.01
3305.42
6150.79
3328.47
8309.7
3175.19
7843.96
4462.78
7160.03
3097.15
10649.9
3816.94
3668.15
1277.34
12033.3
8307.06
7465.42
5441.31
13562.1
11149.7
7417.76
6420.04
7033.25
4721.05
9857.73
6548.99
4933.14
3618.13
2521.57
2064.86
4793.71
4141.58
2499.09
2407.34
4709.28
3070.46
2425.28
1548.32
6255.78
3391.55
4662.43
5656.44
8518.11
6056.15
6718.68
9647.26
4155.71
1962.25
2757.83
3248.1
2072.36
856.966
1195.2
1205.25
7413.3
13314.2
5043.4
14883.9
8719.18
13051.4
6216.23
15615
9943.68
11844.3
8035.77
15292.4
11972.7
14430.6
8870.51
8515.78
9351.62
14401.2
13156.8
12785.1
13040.8
18892.8
11700.6
8889.07
7607.44
8506.36
13428.4
15373.3
13682.9
17850.6
17095.5
14076.1
13008.1
17651.9
16757.2
12192.5
11853.2
16586.7
16171.8
10487.5
8191.86
9618.98
8317.36
10427.8
9228.71
11135.4
10604.4
15325
15590.7
9812.54
8443.56
9247.32
8772.1
9454.49
9894.67
10601.7
11779.6
13849.8
15875.9
8071.83
6330.07
5560.81
7101.17
11016.3
13466.5
7655.28
12139.9
4673.29
6174.81
6937.97
5706.23
1329.03
4720.57
702.291
1701.27
3917.59
8178.88
1457.39
2842.94
603.489
3976.24
350.616
1395.15
4572.97
4649.91
5195.01
3202.08
7220.64
5751.89
8493.26
5817.45
1039.18
2544.93
2572.26
1446.11
1444.81
1881.59
2052.03
1547.13
10851.4
6571.01
2058.11
12301.5
7034.1
2298.22
10404.3
6501.87
2185.38
12123.5
7045.92
2296.42
9574.99
5966.44
1955.68
11849.3
7090.25
2364.92
5304.49
2836.27
755.36
6703.05
4398.28
1529.7
7934.03
5468.87
1884.18
9133.16
5890.47
1951.4
11750.5
7297
2551.89
6328.48
3520.54
1104.46
6260.56
4491.54
1689.56
7378.46
5446.95
1993.51
9233.16
6465.72
2304.97
11877
7374.46
2608.96
297.487
2002.41
2825.68
4087.79
2151.26
2478.49
5411.27
5143.14
601.017
1038.71
641.811
1082.19
487.634
1418.43
870.694
1861.21
3223.28
1578.28
4078.97
2357.77
2179.39
3800.83
3393.95
961.865
6015.77
1491.58
-1861.07
762.617
1808.98
1365.81
1265.54
1189.42
9893.05
4612.71
2707.53
1706.33
10049.3
4799.53
3400.19
2154.82
9925.8
5171.88
4942.6
3521.26
3537.66
2579.65
1781.45
1716.35
12575.5
11194.2
5930.85
6164.57
13415.9
12603.3
6624.03
6688.82
5328.8
5496.91
10901.2
9140.49
3555.04
3720.48
2011.98
2274.72
4094.9
4072
2271.51
2426.69
3138.23
3381.33
1786.68
2175.73
4803.88
3435.26
4817.78
3508.64
7465.17
4540.2
7158.09
4852.83
2914.92
2490.42
3056.69
2274.61
1656.86
1575.34
1950.82
1337.96
11807
8415.69
6083.41
6310.07
11758.2
8595.75
6121.89
6279.94
12182.2
8882.88
6209.93
6094.64
13798.2
14752.9
12710.3
8629.97
5060.77
13981.1
13100.9
12345.8
10370.1
6943.78
13111.1
11973.7
9692.33
7597.17
4917.16
7324.89
6650
6951.67
8094.36
7504.52
6495.43
6999.74
7966.74
7745.97
6375.56
7036.44
7819.55
10555.1
7439.25
9993.85
6989.51
8019.22
6551.93
7660.4
6667.03
6510.05
7717.41
8762.15
7601.11
7864.58
6903.36
6844.56
6275.07
6200.05
6260.24
5150.3
7350.9
7030
4760.96
4676.47
2781.88
9071.8
6991.11
6319.4
5066.14
3887.41
2354.53
5641.67
4213.31
4741.06
2239.16
1748.32
1007.99
4970.64
3586.59
1749.27
1447.26
4153.6
1874.67
1645.13
873.043
3333.1
3131.69
3038.93
4517.02
4641.73
4479.66
3889.35
5810.43
3341.43
2220.78
2180.25
3046.25
1031.41
512.704
268.323
596.242
4637.66
1932.06
568.796
5400.48
1390.66
369.169
4665.22
2076.51
636.458
5372.91
1442.27
401.365
4304.84
2032.99
524.06
5253.59
1460.83
341.02
4564.05
2284.25
494.336
4238.98
2027.07
467.986
4278.48
2041.97
548.083
4357.82
2036.62
425.684
5215.18
1427.52
211.922
5823.32
2898.85
759.828
5372.4
2659.54
720.176
5006.86
2468.2
715.095
4875.21
2071.65
504.231
5640.89
1327.98
322.495
1824.52
659.095
128.818
-212.494
758.925
289.937
78.4163
-42.8833
1935.55
724.314
185.716
-131.356
964.61
404.251
193.976
90.6625
2083.08
808.26
282.662
-6.96109
1656.37
782.165
310.896
73.0679
1266.75
725.629
271.6
-5.01849
1197.77
798.157
477.565
289.517
1732.82
776.49
242.709
-185.634
1489.68
658.09
290.675
-188.719
2047.63
799.09
257.411
-137.573
1857.68
728.344
290.126
-311.487
1394.83
727.229
297.872
-57.5588
1147.58
585.274
316.843
3.80907
1037.24
646.303
392.112
245.507
794.915
498.579
338.389
203.094
2331.05
794.912
124.731
-421.349
2321.98
733.716
177.051
-576.738
2330.31
807.803
147.17
-400.634
2250.61
714.576
185.924
-558.674
2288.45
812.867
226.914
-285.391
2101.23
677.533
231.585
-457.418
2007.49
753.319
317.204
-39.3534
2305.13
760.443
329.603
-534.94
1800.53
676.355
320.142
-126.258
1851.32
518.511
160.262
-391.776
739.678
188.722
44.4371
-82.0755
1909.67
553.947
180.599
-373.006
769.629
204.198
57.5963
-67.0867
1940.14
594.099
225.858
-327.008
781.716
221.875
75.2419
-48.495
1748.57
561.409
261.343
-257.69
757.823
229.571
103.768
-15.4113
1600.92
560.105
287.68
-149.448
676.797
242.711
142.672
29.9768
1121.6
456.323
225.312
-43.6425
637.898
319.828
197.691
106.338
1293.64
461.171
224.84
-107.172
642.467
276.801
170.469
68.5816
905.813
444.174
250.529
41.3085
574.812
338.846
219.763
143.251
642.528
405.706
281.406
177.746
482.624
339.406
242.508
185.86
-19.022
8.43537
8.63622
6.14375
4.74107
-2.81471
5.66626
4.86955
3.39559
2.62094
10.1365
24.038
17.5933
11.7723
8.94371
28.7577
23.4076
15.2242
9.90937
7.47532
42.253
43.1227
28.987
19.1136
14.4883
117.793
79.4026
49.414
31.8841
24.0003
141.983
93.8825
58.356
37.7296
28.4809
206.434
124.442
75.1539
48.1599
36.2994
74.9535
63.1273
40.9975
26.7911
20.1867
80.0658
59.5162
37.8075
24.6471
18.5804
51.4423
50.5194
33.4364
22.0442
16.6898
94.3722
61.6143
37.8445
24.5001
18.4151
97.8853
75.4613
48.4093
31.574
23.8505
107.345
71.2768
44.3072
28.7103
21.6504
164.12
100.271
60.6996
38.925
29.3253
137.119
82.7841
50.034
32.0818
24.1306
-35.1613
4.36916
6.41042
4.71882
3.67051
-19.2142
1.39411
2.51487
1.88774
1.48774
-16.0352
14.1559
11.949
8.19483
6.28928
-12.3833
4.86192
4.44488
3.07965
2.38839
8.09135
25.5365
18.2499
12.1977
9.33897
13.3892
16.3756
10.6924
6.91874
5.27408
61.5431
49.7808
31.7252
20.7884
15.8176
40.9858
31.4274
19.5892
12.7351
9.69273
113.844
65.2657
38.848
24.883
18.7047
1584.82
3625.05
1594.78
3584.49
1735.62
3551.67
2069.11
3695.85
2164.21
3819.25
864.504
1351.43
1425.4
2284.09
457.208
658.585
161.392
218.29
8286.98
1976.75
452.373
100.884
25.0175
2255.79
606.931
161.271
36.6231
7.94437
8202.56
1940.44
443.584
98.0847
24.5015
2295.17
676.799
166.627
38.6889
9.59263
7856.04
1845.07
420.109
92.7586
23.1948
2227.76
654.702
160.771
37.1441
9.24275
7224.6
1681.26
381.559
84.158
21.0467
2167.18
623.647
151.151
34.6101
8.56505
6078.9
1407.05
319.43
70.5383
17.6602
2052.99
574.726
137.75
31.3396
7.7315
2900.02
701.827
162.017
36.0279
9.03163
1002.51
285.138
67.7746
15.1472
3.72687
4305.9
1027.42
235.373
52.0913
13.0396
1475.47
414.268
99.3303
22.5839
5.60839
1705.88
416.166
96.5128
21.5646
5.4155
560.183
165.808
39.1527
8.74372
2.17131
589.301
142.893
33.208
7.44371
1.87
224.191
59.9948
13.068
3.67956
0.707328
137.559
509.192
4522.01
-826.041
747.103
800.671
2335.28
2989.36
1880.16
3527.92
2958.46
4563.37
3562.97
4422.29
1852.47
2495.72
1978.7
2346.92
1029.32
1070.23
2299.25
1685.2
519.832
-451.053
-748.627
-898.058
-265.421
12875.3
3097.03
4224.01
2734.01
-157.599
-26.3807
2968.93
-1390.3
-770.842
-1064.36
-547.371
7069.8
3730.15
1292.31
1063.41
3663.26
2031.91
653.302
1392.48
-1469.7
-845.181
713.101
568.414
8672.85
4303.66
5321.13
2856.6
4087
4458.99
1550.4
-875.237
939.951
1634.33
1345.67
1167.51
1059.93
821.722
1337.46
1080.66
849.507
602.143
260.795
457.413
381.292
290.988
186.156
65.064
-402.795
-336.017
-250.679
-153.992
-51.8522
-668.965
-558.757
-417.715
-257.163
-86.6727
-803.645
-672.496
-503.783
-310.718
-104.834
-230.957
-184.704
-129.679
-74.3177
-23.6813
9363.14
8161.55
7016.91
6490.49
6081.06
2768.35
2448.48
2298.81
1930.29
1025.67
3237.7
2588.63
2190.23
1726.7
908.271
2109.37
1709.77
1494.56
1159.41
488.735
-4.11395
38.1977
148.417
161.663
80.7618
68.4025
147.648
187.541
164.78
70.2215
2524.73
2115.6
1673.46
1170.93
483.177
-844.304
-413.616
-164.147
-30.9484
5.96126
-614.111
-437.688
-265.611
-127.267
-33.2477
-752.001
-468.267
-243.364
-96.6254
-20.598
-495.671
-412.051
-301.21
-179.415
-58.4493
5258.49
4781.58
4160.76
3875.34
3652.53
2873.27
2273.73
1894.38
1446.94
710.83
1196.87
1083.59
920.391
662.183
262.617
938.561
805.514
650.032
447.822
170.894
3057.87
2470.86
1887.54
1259.09
486.878
1802.51
1532.84
1207.72
804.202
292.165
570.544
479.444
375.327
249.606
91.4267
1229.69
1030.87
792.106
510.608
180.065
-1275.27
-1029.51
-743.924
-445.363
-147.425
-743.643
-606.894
-440.05
-262.234
-86.187
639.682
553.875
446.93
304.638
113.171
512.439
445.999
361.015
245.574
90.3224
5615.3
4116.76
3564.82
3308.19
2925.15
3291.64
2566.39
1990.35
1426.38
646.259
3924.4
3225.03
2620.24
2048.12
1005.81
2285.81
1867.84
1459.74
1028.82
450.58
3483.13
2854.08
2185.24
1439.22
534.363
3380.2
2506.26
2039.17
1536.97
654.292
1356.32
1129.76
867.554
562.485
200.38
-776.831
-641.458
-471.731
-285.137
-94.7161
830.957
712.444
573.382
392.605
146.917
-27287.7
-44721.6
-22620.6
-36204.4
-24263.7
-50902.9
-29046.1
-64633
-17274.4
-11803
-19456
-12101
-15942.4
-10233.5
-19758.9
-10379.3
-22549.3
-16969.7
-32870
-23656.5
-19366.2
-15416
-27477.9
-20624.7
-15533.6
-15857
-12746.1
-12238.1
-14993.1
-14136
-37972.4
-10473
-14437.7
-5384.1
-46468.7
-12874
-12909.3
-4787.33
-28225.4
-8888.38
-14783
-5657.11
-25081.4
-7799.25
-11625
-4673.79
-14824.8
-5368.82
-11031
-4847.46
-12887.5
-4661.48
-11436.9
-5543.02
-10295.3
-4083.18
-13212.6
-4661.99
-4636.32
-1627.01
-9865.28
-6539.23
-8515.81
-5181.41
-8712.45
-6998.6
-7476.18
-5327.45
-8656
-4913.56
-10128.3
-6299.89
-5832.27
-3472.98
-3137.06
-1922.86
-5031.47
-3465.16
-2609.97
-1854.53
-5925.7
-3213.55
-3273.87
-1637.54
-7626.37
-3869.81
-4922.12
-5734.88
-9672.43
-6495.76
-6927.26
-9675.81
-5173.54
-2319.07
-2947.2
-3313.51
-2795.71
-1124.82
-1330.53
-1257.49
-11412.1
-13870.7
-6427.42
-15681.5
-11867
-13237.8
-7381.88
-16036
-11996.9
-12060.2
-8798.62
-15266
-8216.16
-6635.65
-8982.5
-9956.46
-9930.27
-9091.76
-10484.6
-12145.2
-13043.5
-18521.5
-6238.32
-6420.39
-6979.29
-8444.72
-13215
-13162.3
-9179.6
-16694.4
-12836.8
-12201.9
-9036.76
-16448.8
-12784.6
-10803
-8440.77
-15352.8
-12655.3
-7460.91
-5941.22
-7674.68
-6127.41
-8559.61
-6902.24
-9337.39
-7903.5
-13992.9
-12721.7
-7012.58
-6041.66
-7023.08
-6065.16
-7708.93
-7168.64
-9254.28
-9140.83
-12928.5
-13275.7
-6426.83
-5132.41
-4729.13
-6216.92
-8069.83
-11188.3
-6102.74
-10333.2
-4329.98
-5733.69
-6186.22
-5059.04
-811.719
-4094.86
-234.228
-1205.75
-2927.03
-7103.37
-640.654
-1978.85
-391.402
-3655.76
-135.644
-1130.24
-4450.61
-4437.15
-5126.48
-3079.38
-6892.44
-5356.44
-8296.1
-5448.79
-968.456
-2396.35
-2520.76
-1364.86
-1361.72
-1750.62
-1995.85
-1468.25
-5566.71
-1914.94
-7529.85
-2569.81
-5690.71
-1998.19
-7708.47
-2768.13
-5645.89
-1967.45
-8166.43
-3152.46
-3489.66
-976.693
-4334.2
-1666.66
-4880.88
-1897.48
-5865.45
-2224.03
-8619.54
-3437.09
-4451.5
-1344.6
-3965.93
-1974.17
-4775.34
-2288.59
-6450.6
-2831.44
-8928.54
-3378.55
-6028.36
-5659.92
-4518.12
-4453.51
-10091
-7718.88
-8182.97
-6787.03
-4105.02
-3592.27
-1675.57
-1214.57
-3864.64
-3763.75
-1536.91
-1614.39
-2896.12
-4569.71
-3461.2
-4938.65
-3740.02
-2423.89
-3140.1
-460.963
-6648.19
-1715.18
2606.42
473.903
-879.425
-239.382
277.018
722.07
-2470.49
-1776.25
-915.477
-559.097
-2619.17
-1880.6
-1360.16
-641.82
-2919.41
-2254.46
-1790.54
-878.729
-1137.7
-56.3622
688.504
1116.29
-5022.29
-5420.01
-3860.47
-3630.2
-6744.36
-6767.75
-5586.14
-4699.24
-2537.95
-2862.63
-3831.35
-4429.82
-2317.55
-2022.73
-951.869
-879.51
-3573.76
-2808.37
-1794.9
-1410.93
-1298.57
-1476.86
-195.605
-554.143
-1696.72
-1231.86
-2477.19
-1841.79
-2688.3
-2247.5
-3839.77
-3027.71
-592.62
-365.899
-1196.5
-720.423
418.131
545.435
-290.312
162.655
-3625.39
-4597.69
-3130.16
-4676.17
-3582.81
-4578.95
-3203.09
-4667.75
-3765.31
-4227.13
-3378.83
-4433.03
-2807.35
-4663.64
-2429.88
-2177.49
-2426.29
-7022.76
-4999.12
-4643.45
-4884.38
-5121.11
-5631.85
-4755.9
-4065.61
-3840.32
-3095.59
-5495.01
-5546.56
-7255.94
-11220.8
-5194.54
-4983.06
-6961.03
-10690.5
-4759.06
-4577.62
-6422.87
-9849.38
-6860.97
-5268.56
-6215.26
-4732.64
-5473.18
-4366.51
-5648.82
-5217.88
-5947.16
-9105.75
-5559.59
-5249.89
-4740.04
-4766.27
-4303.71
-4564.58
-4493.8
-5379.82
-4201.37
-7998.25
-3878.48
-2770.64
-2649.99
-955.142
-5554.96
-4873.45
-4302.93
-3164.51
-2068.18
-749.875
-3178.54
-2553.82
-3197.62
-966
-434.124
123.59
-3579.63
-2336.61
-624.058
-356.774
-2649.28
-716.603
-281.492
186.024
-1924.71
-2020.03
-2141.84
-4046.42
-2995.33
-3419.88
-3069.05
-5650.37
-2032.68
-1311.6
-1168.91
-2452.93
249.591
390.144
811.204
117.419
-3973.39
-1156.05
-7545.78
-763.67
-3709.94
-1244.16
-7334.25
-792.062
-2835.87
-750.524
-6668.3
-621.408
-2893.6
-644.221
-2679.79
-619.755
-2933.89
-891.444
-3100.26
-578.622
-6272.63
-802.518
-4041.24
-786.013
-3744.29
-599.405
-3831.29
-753.042
-4285.57
-636.81
-6587.26
-793.947
-778.111
-156.02
182.049
450.194
-260.88
-38.1949
70.9117
142.084
-765.981
-120.284
199.341
423.537
-175.82
37.663
74.5568
84.0169
-782.907
-78.6445
200.234
373.022
-2.60094
251.785
391.895
433.282
563.82
492.924
565.576
588.654
1027.41
735.499
569.513
419.608
-336.825
131.609
404.509
680.187
-273.986
185.171
321.655
681.428
-845.874
-62.8418
263.562
562.577
-647.407
66.3378
288.209
834.9
141.096
324.319
432.964
577.582
64.4042
288.499
324.632
491.135
599.916
503.386
422.688
336.987
420.54
394.092
326.574
309.904
-1240.01
-271.039
216.326
733.947
-1550.52
-322.616
81.19
916.144
-1189.14
-233.36
235.076
747.644
-1490.77
-297.671
82.5816
906.033
-1105.4
-176.081
189.647
646.412
-1352.9
-250.265
49.5122
823.274
-733.75
-29.4787
173.293
466.67
-1399.65
-211.226
51.8011
1022.6
-683.692
28.3964
200.065
646.008
-1444.59
-247.862
11.7716
644.788
-629.673
-94.9288
26.9934
163.656
-1349.14
-211.711
30.7222
647.262
-599.094
-83.0106
30.5684
161.305
-1155.86
-141.3
39.3435
628.316
-509.893
-53.4762
44.2815
168.375
-947.531
-82.9588
23.0001
563.144
-416.996
-23.4152
44.6854
161.344
-691.715
11.6894
72.1191
482.458
-214.599
45.2218
60.0033
157.143
-306.214
140.1
225.655
449.575
104.105
212.705
190.004
222.489
-568.713
40.0181
143.021
461.544
-18.9049
136.439
124.395
190.046
11.6125
247.125
273.143
406.191
226.509
272.891
235.616
235.722
327.074
336.418
280.065
291.286
349.915
316.045
247.209
216.469
100.787
29.1451
11.9383
6.63701
4.81529
42.6347
13.9409
6.09591
3.45496
2.50831
117.752
42.3015
20.4423
12.1878
9.03778
67.711
30.5608
16.4381
10.1637
7.61397
144.837
59.1573
30.7775
18.7535
13.977
171.516
88.5338
50.4275
31.6752
23.8368
190.257
102.226
58.8798
37.0201
27.8
212.587
125.435
74.8458
47.6537
35.8821
173.143
77.9762
42.5195
26.3301
19.7919
146.811
68.7853
38.0483
23.5967
17.7353
156.319
64.0819
33.8662
20.6742
15.4413
128.938
63.9755
36.3302
22.6481
17.0615
186.038
89.5088
49.8118
31.0009
23.2673
150.085
77.7538
44.4055
27.8314
20.9544
177.105
102.022
60.5245
38.4688
28.9544
147.512
84.3563
49.894
31.6685
23.8451
109.521
25.8455
9.62114
5.16496
3.70669
50.8483
10.4062
3.64621
1.89958
1.33728
117.945
33.5025
14.6932
8.4821
6.20623
53.9119
13.1992
5.51801
3.13943
2.268
121.552
40.4844
19.7114
11.7566
8.64725
60.8396
22.0644
11.5634
7.15081
5.2935
134.948
56.5881
30.5495
18.7023
13.8732
79.9753
33.9569
18.7118
11.5524
8.56518
113.8
63.0214
36.9428
23.2872
17.5332
-1771.68
-3336.29
-1817.42
-3338.7
-1971.48
-3357.69
-2158.15
-3440.94
-2084.7
-3454.57
-815.823
-1274.7
-1358.99
-2122.02
-405.931
-602.252
-106.245
-165.502
-8511.08
-2012.74
-457.791
-101.605
-25.0908
-2289.59
-617.006
-163.41
-36.9402
-7.97346
-8365.67
-1966.07
-447.357
-98.5503
-24.534
-2334.23
-688.3
-168.707
-38.9979
-9.6297
-7913.99
-1853.81
-421.224
-92.822
-23.1619
-2258.88
-663.029
-162.206
-37.3412
-9.26089
-7184.69
-1674.31
-380.175
-83.8349
-20.9507
-2170.12
-625.838
-151.524
-34.6351
-8.55462
-5999.13
-1393.1
-316.822
-70.0181
-17.5338
-2022.06
-570.671
-137.083
-31.1986
-7.69337
-2868.42
-694.336
-160.366
-35.6789
-8.94805
-974.57
-278.9
-66.5002
-14.8908
-3.66815
-4250.09
-1015.62
-232.971
-51.6047
-12.9255
-1439.33
-407.906
-98.1668
-22.356
-5.55592
-1687.58
-411.724
-95.4823
-21.3382
-5.35958
-537.989
-160.215
-37.8948
-8.47703
-2.10775
-576.578
-139.881
-32.4941
-7.28215
-1.82913
-204.245
-54.8288
-11.844
-3.40848
-0.641349
182.07
-1054.9
-5350.68
880.098
-6377.87
-2799.97
-6172.67
-2835.12
-11237.4
-5988.93
-12601.3
-6676.46
-132.207
-522.565
-820.525
-966.977
-867.71
-349.735
-216.79
-811.388
-1232.03
-1361.52
-1098.2
-373.614
-112.19
-120.053
-418.713
-421.586
-598.801
-592.382
-577
-546.475
-515.299
-494.009
-400.241
-360.113
848.208
2192.03
3552.97
2520.26
2317.34
1116.01
798.209
2286.13
3699.13
4285.82
3576.98
1630.17
-119.206
-100.748
-76.3279
-47.5549
-16.1457
-471.858
-399.528
-303.283
-189.261
-64.3148
-740.861
-627.244
-476.116
-297.113
-100.968
-872.812
-738.683
-560.497
-349.671
-118.81
-783.084
-662.535
-502.464
-313.289
-106.407
-317.451
-269.788
-204.828
-127.412
-43.1406
-195.362
-165.005
-124.938
-77.8108
-26.4137
-732.223
-619.56
-470.023
-293.196
-99.6162
-1111.52
-940.233
-713.16
-444.834
-151.141
-1227.49
-1037.59
-786.555
-490.464
-166.63
-989.327
-835.586
-633.006
-394.579
-134.043
-337.664
-285.964
-216.874
-135.101
-45.8429
-101.228
-85.6302
-64.9335
-40.4836
-13.7493
-108.39
-91.7559
-69.631
-43.4389
-14.7582
-378.22
-320.385
-243.307
-151.879
-51.6174
-380.878
-322.693
-245.102
-153.02
-52.0092
-540.846
-458.097
-347.854
-217.124
-73.7892
-535.016
-453.117
-344.042
-214.731
-72.9745
-521.131
-441.356
-335.079
-209.1
-71.0491
-493.293
-417.516
-316.802
-197.624
-67.1401
-465.288
-393.825
-298.681
-186.159
-63.1983
-445.364
-376.342
-285.064
-177.565
-60.2741
-361.649
-305.923
-231.405
-143.652
-48.6067
-324.35
-273.616
-206.727
-128.412
-43.5042
753.739
629.58
475.125
297.405
101.731
1939.86
1615.99
1219.5
765.638
263.215
3108.57
2573.37
1945.6
1234.88
432.129
2190.14
1809.24
1372.19
875.831
307.773
2045.72
1694.97
1279.49
802.283
261.053
1015.98
859.522
657.951
413.598
131.332
710.276
593.57
447.467
279.424
95.3574
2029.38
1693.29
1276.53
798.539
273.242
3263.9
2712.57
2044.92
1284.63
442.43
3756.81
3109.46
2344.82
1479.95
513.332
3135.27
2595.04
1958.79
1237.61
427.733
1444.27
1207.97
919.745
583.857
201.519
288.649
677.037
970.679
1110.33
1000.89
486.451
433.956
1022.59
1428.28
1528.95
1222.85
456.453
235.37
223.997
537.698
522.438
707.711
684.258
667.986
617.563
597.563
508.038
538.38
404.833
-691.74
-1954.61
-3141.87
-1969.89
-1644.82
-379.988
-729.252
-2174.55
-3452.12
-3841.61
-2938.25
-868.997
261.104
221.57
168.584
105.401
35.8538
612.075
519.007
394.585
246.548
83.8429
877.297
743.665
565.215
353.086
120.059
1003.33
850.32
646.151
403.591
137.224
904.725
766.985
582.925
364.107
123.793
442.579
377.485
287.983
180.023
61.1576
392.447
332.925
253.242
158.303
53.8461
924.054
783.155
595.148
371.763
126.409
1290.02
1092.73
830.017
518.325
176.223
1380.12
1168.34
887.03
553.801
188.276
1103.26
933.509
708.52
442.316
150.384
413.441
351.143
267.169
166.909
56.7336
212.927
180.702
137.497
85.9658
29.2425
202.633
171.956
130.832
81.7935
27.8219
486.185
412.347
313.553
195.938
66.6328
472.396
400.652
304.657
190.377
64.7413
639.78
542.489
412.418
257.672
87.6171
618.525
524.403
398.621
249.03
84.6754
603.942
512.164
389.386
243.277
82.7175
558.094
473.029
359.464
224.516
76.33
540.633
458.745
348.868
217.945
74.0888
459.019
388.938
295.451
184.468
62.6994
488.395
415.359
316.188
197.442
67.0554
366.084
310.374
235.77
147.121
49.9738
-610.82
-506.833
-380.599
-237.777
-81.3664
-1723.36
-1430.43
-1076.98
-676.044
-232.72
-2730.81
-2246.45
-1692.18
-1074.58
-377.529
-1669.59
-1344.81
-1000.38
-633.032
-222.534
-1402.97
-1117.39
-812.809
-493.234
-150.063
-310.668
-223.742
-142.378
-70.8079
-8.23203
-647.631
-540.155
-406.648
-253.84
-86.6489
-1928.42
-1607.61
-1211.41
-757.963
-259.497
-3038.14
-2518.53
-1895.44
-1190.39
-410.288
-3345.77
-2751.09
-2064.41
-1300.52
-451.417
-2539.03
-2070.47
-1544.19
-969.449
-334.241
-731.008
-577.762
-419.367
-258.775
-87.8558
-1404.14
-885.402
-216.445
708.887
1010.62
1285.26
612.531
-10717.3
-1643.62
-3084.7
-1478.31
285.42
-3944.04
872.491
2505.42
1200.17
-5804.66
-2622.04
-403.744
-510.969
-3310.91
-1221.29
-220.56
-984.106
2193.01
1389.88
-478.208
-125.288
-7642.25
-3543.29
-4192
-2015.23
-3477.33
-3252.8
-1033.27
1410.99
-335.828
-674.381
-443.563
-391.758
-504.833
-593.643
-542.42
-344.674
-235.718
-180.166
-101.636
-178.027
-139.057
-102.671
-66.4753
-24.0224
641.289
543.904
413.249
257.894
87.6299
911.548
770.438
583.447
363.197
123.211
1159.31
980.068
742.543
462.512
156.971
555.627
471.079
356.028
220.078
74.0606
-7677.04
-6869.44
-6202.48
-6310.05
-6631.69
-1046.68
-704.544
-844.717
-1002.29
-718.29
-2155.81
-1585.83
-1385
-1228.51
-768.287
-943.494
-620.383
-578.922
-528.337
-240.208
263.327
214.933
142.306
66.1835
12.4743
-3287.12
-2692.11
-2075.03
-1416.31
-572.785
789.589
660.971
487.756
291.587
94.003
2179.41
1781.62
1318.29
812.829
275.527
1077.6
903.782
677.84
417.778
140.351
-4047.55
-3767.33
-3426.7
-3525.29
-3753.54
-1789.27
-1276.96
-1092.22
-938.532
-551.569
-309.898
-258.895
-243.965
-218.639
-109.935
-408.349
-327.048
-266.082
-199.568
-85.8814
-2757.9
-2230.02
-1716.81
-1164
-461.146
-1024.53
-830.892
-643.699
-437.551
-164.822
-165.542
-121.924
-92.7596
-67.9229
-28.8384
-848.792
-696.344
-529.412
-342.824
-122.538
1958.43
1637.94
1229.44
760.806
257.115
1252.76
1055.86
795.181
491.297
165.476
-398.358
-322.828
-252.814
-175.081
-67.9625
-90.0846
-66.7816
-57.2358
-48.5705
-22.2098
-4643.45
-3237.86
-2858.38
-2873.78
-2847.96
-2565.26
-1909.89
-1458.4
-1075.85
-522.88
-2780.75
-2187.64
-1768.33
-1488.17
-790.518
-1482.09
-1141.39
-873.258
-645.506
-319.085
-2913.99
-2352.76
-1791.65
-1189.09
-449.605
-2238.57
-1461.95
-1207.24
-1009.17
-477.8
-876.653
-710.695
-539.95
-353.971
-129.068
1273.69
1075.83
812.428
503.406
169.969
-255.768
-196.739
-161.063
-125.84
-54.888
1.17993
44.4064
103.536
136.722
102.363
-3.45524
-19279.7
-17016.4
-16248.5
-18519.4
-14123.4
-11177
-12743.3
-9674.02
-16679.2
-14597.1
-15366.1
-14432.6
-13480.9
-11477.4
-14162.5
-15852
-14164.9
-13046.9
-14716.3
-11903.4
-10081
-10662.1
-8552.17
-14945.9
-13254.6
-13767.4
-12521.2
-11918.2
-11137
-11475.4
-12435.3
-11394
-10325.4
-11297.5
-9885.21
-8485.35
-8907.3
-7656.65
-12499.9
-11325.3
-11634
-10585.7
-10117
-9359.14
-9605.14
-8671.49
-8156.87
-7286.45
-7726.77
-7316.89
-6560.65
-6620.08
-6065.31
-8985.06
-9064.82
-8476.11
-8535.34
-7554.71
-6825.93
-7571.16
-5540.37
-5294.6
-4691.74
-4895.53
-4899.59
-4435.82
-4372.71
-4045.19
-5945.77
-5932.89
-5680.6
-5543.25
-5169.17
-4668.61
-5041.72
-1993.67
-1922.52
-1698.21
-1758.5
-1810.25
-1692.8
-1603.39
-1496.44
-2256.73
-2247.5
-2110.12
-2006.17
-1943.16
-1783.46
-1905.67
-7382.69
-7283.9
-10975.5
-11828.8
-6961.17
-6189.93
-9635.33
-7841.46
-5853.64
-4442.02
-5813.16
-4400.92
-5848.13
-5586.63
-4463.34
-7368.92
-6998.54
-9768.01
-10651.6
-6506.29
-5901.32
-8501.08
-7334.66
-5848.28
-3966.8
-5747.94
-4175.28
-5263.3
-5056.13
-4537.38
-6750.72
-6443.57
-8290.02
-8886.37
-6066.46
-5657.81
-7426.48
-6586.54
-4883.31
-4358.26
-4871.88
-4575.58
-4564.53
-4559.86
-4718.11
-5481.36
-5286.29
-6225.31
-6534.29
-5029.49
-4714.9
-5771.81
-5279.38
-4730.04
-3974.87
-4652.7
-4218.5
-4363.37
-4320.41
-4273.05
-3803.48
-3690.36
-4124.83
-4279.07
-3434.7
-3186.55
-3891.63
-3580.5
-3348.22
-3085.85
-3272.12
-3226.06
-3067.38
-3002.35
-3055.76
-1420
-1378.98
-1509.41
-1558.45
-1277.13
-1175.49
-1432.29
-1321.18
-1098.23
-1134.99
-1172.56
-1227.37
-1139.09
-1102.29
-1118.1
7109.47
22988
5633
24071.5
4242.26
24920.9
6730.5
38484.9
8274.63
52930.5
8194.16
38503.2
7878.87
31919.5
8199.7
27903.3
4968.04
3061.82
13299.1
7872.53
4880.41
2628.59
14589.5
7239.09
5389.42
3884.03
17051.6
11963.2
4079.72
2922.12
17132.3
12405.4
9617.14
4055.15
8285.75
3680.66
3792.02
8951.89
33382.2
9056.89
11940.9
4052.67
43065.9
11708.6
11210.1
3894.7
23803.6
7392.4
12205.7
4265.47
20664.7
6575.28
5631.62
2792.59
8363.67
3249.02
6151.48
3328.97
8323.7
3180.48
7843.03
4462.94
7164.57
3099.32
10658.7
3820.26
3670.27
1278.17
12032.3
8306.38
7465.26
5441.11
13560.5
11148.4
7417.9
6419.88
7033.38
4721.01
9856.99
6548.7
4933.51
3618.15
2521.22
2064.68
4794.35
4141.72
2499.16
2407.34
4710.06
3070.53
2425.05
1548.13
6256.59
3392.08
4662.59
5656.73
8517.97
6056.45
6718.75
9647.65
4157.02
1962.81
2758
3248.29
2072.5
857.063
1195.1
1205.26
7368.45
13308.8
5011.83
14874.6
8721.11
13047.2
6219.35
15611.9
9943.84
11843.3
8036.52
15291.7
11971.8
14428.5
8870.07
8516.2
9352.35
14399.3
13155.6
12784.3
13040.3
18892.9
11699
8888.19
7607.05
8506.37
13428.8
15396
13720.3
17855.8
17077.1
14069.2
13002.9
17644
16752.3
12189.9
11849.7
16585.3
16169.9
10486.1
8190.84
9617.92
8316.31
10426.7
9227.39
11133.8
10602.6
15324.2
15589.7
9811.42
8442.55
9246.5
8771.13
9453.81
9893.7
10601.1
11778.7
13849.8
15875.3
8071.35
6329.83
5560.61
7101.13
11015.4
13465.8
7654.88
12139.5
4673.24
6174.9
6937.73
5706.13
1328.9
4720.56
702.208
1701.24
3917.46
8178.71
1457.39
2842.92
603.398
3976.3
350.508
1395.12
4573.06
4650.03
5195.22
3202.16
7220.64
5751.91
8493.51
5817.51
1039.17
2544.99
2572.36
1446.14
1444.8
1881.61
2052.08
1547.14
10878
6584.51
2066.21
12307.7
7043.37
2301.4
10400.6
6500.8
2185.28
12120.3
7044.27
2296.21
9572.51
5965.19
1955.37
11847.4
7088.96
2364.57
5303.72
2835.78
755.193
6702.12
4397.64
1529.48
7932.77
5468.02
1883.9
9131.49
5889.42
1951.08
11749.3
7296.01
2551.55
6327.68
3520.01
1104.26
6259.63
4490.85
1689.29
7377.43
5446.13
1993.2
9232.11
6464.84
2304.63
11876.1
7373.59
2608.6
302.881
2004.5
2839.91
4092.24
2153.63
2479.58
5419.21
5145.72
584.148
1026.05
622.668
1065.22
491.939
1418.07
875.089
1860.4
3235.42
1583.5
4083.58
2359.08
2183.11
3808.77
3398.64
965.767
6018.61
1493.59
-1849.14
770.949
1814.69
1370.98
1275.22
1197.15
9905.3
4608.74
2696.48
1698.29
10040.5
4799.44
3398.08
2154.69
9920.91
5170.92
4944.03
3520.95
3541.68
2580.19
1786.38
1718.15
12572
11192.3
5931.84
6164.66
13413.3
12601.5
6624.59
6688.82
5329.85
5496.93
10897.6
9138.77
3557.21
3721.08
2013.75
2275.31
4096.22
4072.39
2272.36
2427.01
3140.69
3381.92
1788.97
2176.42
4804.31
3435.29
4817.7
3508.57
7462.82
4539.53
7156.86
4852.27
2916.71
2491
3057.14
2274.86
1658.99
1576.38
1951.46
1338.42
11837
8421.1
6085.57
6310.6
11750
8595.08
6120.62
6279.83
12174.5
8879.46
6208.24
6093.43
13793.3
14749.4
12705.3
8626.47
5059.72
13978.3
13097
12341.5
10366.5
6942.38
13108.7
11971
9689.89
7595.4
4916.41
7324.5
6654.06
6947.59
8088.27
7502.46
6495.11
6997.25
7965.65
7743.81
6374.07
7035.57
7818.9
10553.2
7438.09
9991.4
6988.1
8016.81
6550.44
7658.26
6665.58
6508.99
7716.49
8760.6
7599.9
7862.65
6901.97
6842.71
6273.71
6198.57
6259.06
5149.49
7349.99
7028.42
4759.97
4675.96
2781.43
9070.39
6990.17
6318.91
5065.67
3886.98
2354.15
5640.34
4212.43
4741.05
2239.03
1748.59
1008.1
4970.59
3586.44
1749.42
1447.31
4153.6
1874.58
1645.44
873.177
3332.78
3131.32
3038.72
4516.64
4640.78
4478.92
3888.85
5809.78
3341.44
2220.67
2180.28
3046.11
1031.72
512.848
268.616
596.363
4642.66
1937.13
571.34
5405.99
1399
371.277
4663.83
2076.68
636.476
5370.64
1440.78
401.402
4303.81
2032.65
524.037
5252.79
1460.21
340.89
4563.3
2283.82
494.197
4238.16
2026.65
467.857
4277.6
2041.55
547.965
4356.88
2036.18
425.557
5214.5
1427.16
211.813
5822.48
2898.37
759.662
5371.5
2659.08
720.024
5005.97
2467.75
714.955
4874.4
2071.24
504.098
5640.23
1327.75
322.427
1817.27
654.916
126.313
-213.44
751.422
286.117
76.5981
-43.6567
1935.87
724.387
185.68
-131.553
964.744
404.291
193.906
90.5152
2083.01
808.234
282.625
-7.08124
1656.26
782.146
310.876
72.964
1266.86
725.693
271.653
-5.01376
1198.36
798.426
477.704
289.572
1732.85
776.525
242.736
-185.646
1489.73
658.141
290.714
-188.68
2047.47
799.06
257.41
-137.611
1857.57
728.331
290.136
-311.463
1395.05
727.349
297.946
-57.5253
1147.75
585.385
316.914
3.85856
1037.69
646.526
392.235
245.568
795.197
498.745
338.492
203.159
2330.17
793.891
123.155
-422.525
2324.48
734.308
176.432
-578.507
2329.84
807.583
147.124
-400.734
2250.13
714.396
185.991
-558.557
2288.07
812.741
226.903
-285.392
2100.77
677.385
231.598
-457.324
2007.18
753.209
317.164
-39.4057
2304.73
760.33
329.595
-534.873
1800.33
676.302
320.119
-126.308
1856.82
520.537
160.615
-394.283
743.236
189.876
44.5876
-83.0426
1907.08
553.136
180.442
-372.591
768.537
203.889
57.5093
-66.9037
1939.56
593.882
225.86
-326.875
781.411
221.769
75.2311
-48.4117
1748.21
561.281
261.324
-257.624
757.643
229.503
103.752
-15.3833
1600.69
560.03
287.66
-149.418
676.687
242.668
142.653
29.9794
1121.61
456.358
225.342
-43.6078
637.92
319.85
197.703
106.348
1293.53
461.157
224.844
-107.144
642.418
276.784
170.459
68.5797
905.924
444.261
250.588
41.3591
574.912
338.916
219.807
143.283
642.727
405.838
281.493
177.811
482.788
339.519
242.581
185.913
-20.2006
7.67434
8.16416
5.82686
4.49054
-3.59994
5.14135
4.52675
3.15439
2.42486
10.118
24.0293
17.5844
11.7643
8.93275
28.7597
23.4153
15.2312
9.91661
7.47351
42.2054
43.0888
28.957
19.0871
14.4601
117.735
79.3574
49.3757
31.8521
23.9709
141.976
93.8732
58.3472
37.7227
28.4798
206.457
124.452
75.1584
48.1621
36.3026