/*--------------------------------*- C++ -*----------------------------------*\
  =========                 |
  \\      /  F ield         | OpenFOAM: The Open Source CFD Toolbox
   \\    /   O peration     | Website:  https://openfoam.org
    \\  /    A nd           | Version:  11
     \\/     M anipulation  |
\*---------------------------------------------------------------------------*/
FoamFile
{
    format      ascii;
    class       volScalarField;
    location    "2.4";
    object      gradTx;
}
// * * * * * * * * * * * * * * * * * * * * * * * * * * * * * * * * * * * * * //

dimensions      [0 -1 0 1 0 0 0];

internalField   nonuniform List<scalar> 
5712
(
-6532.31
-8348.89
-15531.4
-22664.8
-23114.8
-39908.9
-17790
-45323.4
-14498.3
-31853.6
-21675.8
-32963.6
-19461.9
-25498.3
-8554.39
-9775.35
-14538.4
-16648.4
-18819.9
-18664.7
-14832.3
-18345.5
-21867.8
-19636.6
-5299.9
-3969.38
-6595.04
-4423.13
-12275.7
-9787.4
-20985.4
-15167
-16273.3
-16897.7
-18033.2
-17144.4
-6280.95
-4943.27
-38572.8
-51644.3
-24912.4
-30591.2
-51939.7
-67388
-26872.4
-30762.1
-28563.6
-40359.1
-24909.8
-33034.4
-14553.4
-23485.6
-2778.02
-935.249
-2928.67
-1054.49
-8391.49
-3382.77
-11530.9
-4236.1
-8181.29
-3142.32
-8738.94
-2799.64
-14912.3
-4741.04
-19248.9
-6488.89
-23666.5
-11727.5
-21665.3
-12846.1
-22245.6
-14385.3
-19561.1
-14736.7
-16992.4
-10088.4
-16978.7
-8629.92
-22349.3
-14314.9
-22396.9
-14454.3
-20654.8
-15613.3
-20903.8
-15691.2
-18358.8
-11669.1
-19017.5
-11962.1
-17336.6
-7487.92
-7989.72
-9703.09
-17409.1
-8177.87
-6953.11
-9807.03
-18364.9
-7460.95
-9070.3
-9791.39
-19278.5
-7645.2
-9873.55
-10239.3
-3600.44
-3928.47
-1206.28
-2343.08
-10560.8
-11157.4
-4061.55
-7161.02
-13523.8
-15051.1
-6469.8
-10982.3
-12261.8
-1153.32
-13452.7
-16503.9
-8912.28
-816.214
-7491.31
-12043.3
-19364.4
-13293.5
-9747.15
-11796
-10260.5
-8804.9
-13787.1
-3474.82
-2876.76
-1980.88
-1967.16
-9813.53
-8317.61
-5876.15
-5595.55
-12276.9
-10462.3
-7677.73
-6898.43
-5876.61
-7458.24
-12095.3
-12511
-13916.4
-12671.5
-15677.8
-13686
-10505.5
-8837.26
-9008.74
-9550.03
-11871.6
-9470.83
-10789.7
-7948.96
-9308.28
-6496.28
-10776
-7096.87
-10192.1
-4881.56
-8729.37
-9520.17
-12508
-16384.3
-13752.8
-20061.5
-6929.52
-7754.21
-9015.11
-3024.28
-7771.03
-15022.4
-7367.88
-16085.4
-13611.7
-24750.5
-13847.1
-26243.7
-5852.98
-12871.7
-5310.36
-13697.2
-8068.86
-6160.5
-11186.2
-4482.04
-8343.96
-1804.27
-9775.29
-889.589
-7738.97
-9178.08
-11713.1
-5438.83
-6391.17
-10803.3
-10355.2
-7120.77
-2306.06
-2044.38
-1846.66
-1652.97
-1525.04
-1374.54
-6847.68
-5679.9
-4960.34
-4372.91
-3561.66
-3118.29
-8449.68
-7355.04
-6824.06
-5274.3
-4357.55
-4141.23
-6605.54
-5906.18
-5783.59
-10961.3
-8445.17
-7160.06
-10258.9
-7689.07
-6292.09
-10784.1
-8613.69
-7535.94
-6605.99
-4416.88
-3476.8
-15776.1
-13790.9
-12034.8
-10078.9
-8484.5
-7122.05
-8883.3
-6998.61
-5660.67
-7403.54
-5424.25
-4230.38
-7523.38
-4237.35
-2431.64
-10280.9
-13950.1
-8115.39
-10509.9
-11017.5
-16212.4
-9828.19
-14340.1
-49.8179
-738.202
496.409
-104.405
-2962.08
-3363.1
-1224.44
-661.134
-693.514
-2410.35
-9351.79
-13676.2
-6642.58
-3621.4
-9797.07
-9722.27
-15048
-16571
597.084
4077.22
-7518.32
-7091.28
-7100.89
-5479.89
-1029.72
-551.092
-659.435
-261.178
-2003.73
-230.069
345.743
849.724
-9215.42
-2432.67
-6208.94
-1640.93
-8955.49
-2745.63
-10840
-3514.54
-8759.76
-11879.8
-8110.32
-11598.9
-14007.1
-14873
-13379.2
-14100.4
-5656.55
-9471.15
-6521
-9400.97
-8606.62
-11182.9
-9495.79
-11308.8
-13941.1
-13859.3
-14601.2
-13927.8
-5710.84
-9176.35
-6215.3
-9357.29
35.7692
-1470.58
-7563.42
-4889.73
607.627
-1053.07
-7008.01
-4330.83
-416.387
-1719.37
-7741.22
-5323.14
-873.886
-1992.97
-7796.04
-5523.61
678.969
786.429
-179.566
-34.5305
2890.49
2938.52
182.289
333.189
542.301
1949.55
-1777.26
-1138.87
10247.9
9497.41
5560.37
4227.54
359.487
10429.8
10806.5
4326.04
6378.85
741.734
-10150.7
-8025.05
-7227.86
-6880.22
-4324.13
815.405
769.806
16.3662
-99.0841
2578.23
2583.46
42.5985
-227.464
2588.07
3207.41
-805.107
-1176.67
5135.87
2374.71
8213.58
5210.31
3664.17
2818.81
4119.76
3626.75
-591.514
-1601.12
-3742.22
-2366.15
-1036.05
1044.76
-1061.52
746.54
-1855.67
-492.389
-2353.21
-2712.24
-5263.54
-4835.96
-9994.14
-6053.75
-8095.69
-8190.83
-12293.8
-9985.35
-7994.21
-4763.08
-4028.11
-4026.66
-11774.5
-5230.04
-12952.7
-5863.81
-13710.4
-10191
-14632.8
-10916.8
-9676.8
-3899.46
-10837.6
-4512.45
-6478.83
-5238.97
-5203.88
-7730.16
-4245.55
-4826.26
-4470.21
-7170.83
-7453.6
-5201.33
-5869.09
-8865.89
-9011.01
-5654.25
-7270.23
-9161.24
806.386
876.726
992.867
9.58018
305.161
346.573
2948.78
3177.52
3193.67
194.169
876.317
888.502
3713.74
4211.09
4349.43
-686.393
845.422
1163.08
1304.49
1124.9
824.353
3906.96
4026.42
3774.35
3203.43
3667.35
3626.2
3962.58
4328.92
4251.24
-1503.47
365.27
515.59
-3431.29
-1939.01
-1006.63
1079.57
2271.94
2909.62
1015.25
2560.94
3237.44
417.368
2109.99
2601.42
-2540.45
528.342
898.159
25.7052
41.5186
56.2766
85.9799
274.008
159.414
135.548
134.704
1.48823
81.4211
194.604
308.118
444.794
294.463
335.012
369.305
-244.879
31.7064
277.066
547.322
158.911
241.87
320.104
371.516
36.3219
146.638
157.486
157.32
-222.557
-4.9076
129.483
223.415
-993.696
-202.413
113.43
340.312
-1557.29
-361.313
15.1126
580.341
-698.154
-84.8215
197.677
493.853
-1283.15
-274.959
-4.20336
508.968
-1055.64
-242.354
138.965
425.716
-1744.46
-429.984
13.3111
681.651
-1177.58
-322.739
125.84
505.057
-1879.07
-492.844
-9.30645
712.987
5.09578
24.0021
48.6925
107.563
35.2223
32.9252
30.0273
98.6816
63.6961
82.5144
149.475
289.889
161.436
112.091
92.325
266.754
-434.726
-52.0064
165.789
496.177
-206.915
29.0675
123.679
471.422
-102.096
123.548
243.709
495.105
-37.2045
98.8757
106.76
475.691
-1109.54
-210.755
36.785
663.792
85.3499
46.665
35.3215
74.4771
167.373
68.5768
36.8838
34.6108
171.86
110.731
78.9642
192.383
425.829
182.205
93.4449
89.2429
90.098
122.652
110.437
317.011
533.654
255.849
141.092
140.912
-120.451
110.87
139.358
440.523
407.779
275.986
168.231
179.587
-591.675
12.3171
78.0792
424.871
98.848
237.657
157.029
184.931
-1289.79
-128.477
66.6039
492.314
-422.233
59.8919
102.077
173.731
-1004.58
-38.9454
78.1237
459.156
-262.395
139.13
134.491
187.477
-1553.19
-239.842
29.0855
534.087
-567.987
-18.9962
67.3345
162.647
-1751.4
-351.568
-23.905
527.361
-704.03
-105.948
21.1817
140.637
38.2567
17.2593
9.11821
5.49755
4.05225
50.5004
26.5617
15.0048
9.289
6.89761
91.3371
40.1965
21.1854
12.843
9.54033
114.564
59.5866
33.7038
20.9754
15.6317
121.115
50.3557
26.2093
15.8744
11.8249
154.333
79.1055
44.8537
28.0733
20.998
81.1617
40.5881
22.9131
14.3679
10.7542
57.3355
23.7177
12.2638
7.47578
5.54163
122.111
51.6089
27.3641
16.7696
12.4526
58.2145
21.1009
10.5429
6.32469
4.66194
128.623
60.0695
33.3149
20.727
15.484
54.9366
20.9924
10.8108
6.53709
4.81342
93.8369
33.6727
16.5521
9.90007
7.30754
55.1235
18.843
9.23045
5.53437
4.08824
81.1432
21.4923
8.50726
4.64959
3.31006
44.7921
10.1416
3.65967
1.92002
1.34193
31.8559
13.0119
6.62455
3.91311
2.8598
22.9878
10.3184
5.49231
3.28907
2.41199
77.8009
32.701
17.0759
10.233
7.54637
59.3688
27.2167
14.7411
8.91134
6.56076
109.131
40.3157
20.1912
11.9287
8.77181
80.7135
37.577
20.5736
12.4817
9.25282
98.5736
46.2045
25.7675
15.9631
11.938
55.0178
28.6599
16.2214
9.96488
7.45918
51.2312
25.4256
14.5027
9.08074
6.79352
-343.173
-461.458
-776.673
-1131.09
-820.444
-1418.42
-310.799
-1161.22
330.03
-243.263
-740.697
-1222.99
152.737
76.7589
-1135.53
-1788.64
-1427.92
-2035.5
-601.75
-139.405
-31.3456
-6.91162
-1.73032
-207.88
-91.454
-13.0201
-3.4192
-1.47027
-1848.67
-426.39
-96.2041
-21.108
-5.29118
-498.411
-132.771
-31.9991
-6.70833
-1.793
-3109.85
-718.804
-162.597
-35.7878
-8.9507
-787.875
-223.989
-53.9184
-12.4244
-3.10555
-4181.26
-969.319
-220.132
-48.5912
-12.1657
-914.213
-281.014
-69.85
-16.2868
-4.06451
-5236.39
-1225.95
-280.31
-62.1769
-15.6298
-1004.81
-340.005
-87.0719
-20.5806
-5.19739
-6233.55
-1504.64
-348.775
-78.0052
-19.692
-1535.41
-469.345
-115.719
-26.525
-6.62777
-5792.15
-1392.83
-321.435
-71.5965
-18.0189
-1201.85
-399.163
-101.312
-23.6705
-5.92076
-6438.97
-1556.92
-361.603
-81.0016
-20.4789
-1734.15
-513.597
-124.826
-28.223
-7.03498
-6716.18
-1610.5
-374.598
-83.8776
-21.1939
-1796.42
-534.016
-130.981
-27.5159
-7.25848
-509.728
-6850.22
-6251.93
-2244.82
1622.05
2769.67
7726.31
11293.9
1733.04
8290.39
-1593.15
2585.58
2484.4
4893.62
9220.94
13047.6
13955.4
17510.3
5696.63
7376.76
-19768.3
-14320.9
-4845.3
-3824.1
-2753.13
-3941.68
-3650.01
-12211.2
-11783.3
-10026.3
-10935.2
-9083.44
-6496.2
-8427.14
-5633.97
-4770.51
-5816.92
-3994.2
-19760.6
-10348.6
-3707.44
-6306.48
-8498.17
-5953.89
-6528.28
-4867.77
-2981.76
-4220.52
-4460.41
-4816.88
-19454.7
-12803.5
-12190.3
-8829.59
-8804.36
-9220.43
-4023.03
-5319.15
-6696.06
-14201.8
-12420.7
-10594.6
-9985.88
-8775.62
-9338.61
-6439
-5067.23
-3962.71
-2078.22
-4281.28
-3553.93
-2666.58
-1663.55
-569.552
-3416.73
-2861.92
-2154.67
-1339.51
-455.101
-2445.99
-2034.15
-1519.51
-938.24
-317.427
-3525.61
-2953.7
-2220.87
-1377.14
-466.692
-3241.03
-2696.49
-2018.27
-1250.12
-424.165
-7899.12
-6113.31
-4873.27
-4622.89
-5105.23
-6475.3
-4809.03
-3480.77
-2942.06
-2084.4
-6266.62
-3769.46
-2639.83
-1872.47
-916.451
-5631.56
-3818.45
-2567.98
-1899.82
-1136.71
-4245.34
-2659.7
-1669.17
-1174.05
-582.374
-5146.44
-3849.09
-2665.14
-1598.26
-551.802
-5734.73
-3680.32
-2414.26
-1455.91
-549.804
-3696.68
-2202.9
-1319.54
-716.141
-242.903
-3933.45
-3038.64
-2142.53
-1284.06
-433.959
-4645.31
-3469.45
-2367.96
-1381.61
-459.56
-3328.03
-2591.29
-1831.4
-1092.58
-365.528
-13149.5
-10119.7
-8300.58
-7541.94
-7349.18
-7640.59
-5558.92
-4101.72
-2818.75
-1287.72
-3088.16
-2419.7
-1736.94
-1062.28
-367.066
-5347.79
-4280.18
-3142.73
-1962.94
-690.991
-6978.11
-5495.91
-4065.55
-2633.79
-1004.6
-5074.03
-4096.56
-3045.45
-1929.09
-687.136
-5657.87
-4628.9
-3458.89
-2178.42
-762.301
-4239.17
-3469.4
-2576.85
-1602.37
-550.613
-2572.1
-2073.57
-1508.69
-916.736
-308.642
-3717.25
-3065.07
-2275.58
-1401.89
-474.728
-3796.85
-3028.13
-2193.1
-1337.05
-454.59
-4174.37
-3394.9
-2503.54
-1546.47
-529.082
-13625.5
-11404.8
-9664.83
-8785.03
-7836.21
-8923.62
-6427.58
-5007.42
-3773.18
-1957.74
-9035.92
-7206.01
-5550.48
-4167.36
-2058.8
-6964.26
-5307.63
-4026.15
-2769.32
-1142.11
-7359.97
-5904.98
-4433.01
-2895.18
-1095.64
-7214.33
-5453.82
-4110.06
-2814.69
-1147.11
-3457.34
-2800.39
-2072.65
-1296.56
-452.406
-4690.14
-3878.04
-2893.29
-1793.37
-610.392
-5768.96
-4687.95
-3482.4
-2184.43
-762.262
-5495.17
-11178.6
-11669.4
-31913
-11518.3
-42763.4
-6276.04
-15212.8
-11531.5
-8910.67
-19121.7
-15953.3
-11521.5
-10859.6
-21477.6
-17026.3
-4042.16
-3000.61
-7811.21
-5362.46
-9061.13
-6825.33
-24274.5
-17921.4
-14942.4
-11355.6
-15352.9
-9134.27
-1182.08
-3689.11
-39796.4
-52138.7
-24076
-30443.9
-52651.3
-67673
-25953.3
-30539.7
-29632
-40906.7
-24150.2
-32974.2
-15996
-24166.2
-1926.51
-507.554
-3379.81
-1152.59
-6553.12
-2921.56
-13283.6
-4793.64
-2887.69
-1635.17
-7220.25
-2268.03
-14936.1
-4689.58
-19423.2
-6537.53
-16312.1
-8440.6
-18769.8
-11161.9
-14898.9
-10653.5
-16692.8
-12948.7
-14959.7
-8752.94
-11847.7
-6108.23
-21228.2
-13554.2
-22116.2
-14245.9
-19513.3
-14836
-20598.9
-15479.4
-17607.9
-11049.9
-18839.3
-11790.9
-16355.9
-7209.94
-7113.84
-9368.41
-14641
-7366.99
-5323.62
-9197.13
-18099
-7390.45
-8661.41
-9626.45
-19245.7
-7639.24
-9757.98
-10191
-1108.83
-995.349
-267.431
-1175.36
-4503.43
-4651.23
-2810.73
-5564
-2513.66
-3133.96
-4359.23
-8233.5
-12009
-9658.31
-9260.39
-11533.9
-7580.37
-7613.21
-8124.27
-6795.64
-13347
-11541.5
-11427.7
-9542.95
-6607.2
-5653.84
-12413.4
-1072.97
-805.513
-597.921
-670.172
-4184.77
-3326.81
-3536.78
-3116.34
-597.811
517.946
-4177.19
-3279.81
-10131.9
-10761.1
-9461.57
-8657.86
-7010.24
-5093.57
-9163
-7302.66
-8165.39
-6397.22
-11512.6
-11733.1
-9827.89
-7710.7
-7258.12
-4948.58
-6382.89
-4056.87
-9506.68
-5794.32
-9250.48
-5081.12
-8245.51
-9408.35
-13006.5
-17315.3
-13716.8
-20031.6
-6303.47
-7503.18
-7654.99
-2893.93
-7595.15
-14876.8
-7326.31
-16030.2
-13548.9
-24846.9
-13823.4
-26224.2
-5616.76
-12692.5
-5254.07
-13642.2
-7602.79
-5999.8
-10991.7
-4464.01
-7328.23
-1810.25
-9459.94
-1237.78
-7552.67
-9064.09
-11624.6
-5416.54
-6342.01
-10766.2
-10331.3
-7107.23
-794.726
-738.928
-537.882
-621.527
-2537.97
-1855.35
-2293.73
-2086.62
1077.22
596.635
-2688.71
-2988.32
-10654.9
-10118.7
-7665.13
-6629.87
-4049.56
-3419.13
-5727.09
-4730.2
-5377.99
-3929.99
-18253.5
-16008.2
-7940.81
-6782.3
-6006.83
-4594.23
-4951.16
-3200.4
-5263.58
-2304.96
-5590.18
-9193.5
-4900.84
-9298.77
-8268.29
-10344.7
-9271.36
-12636.7
-995.936
-730.135
-780.739
-668.4
-3639.31
-2616.19
-2986.96
-1699.97
-1429.21
-1702.13
-8335.65
-8961.07
-4697.37
-4246.14
-9293.77
-9610.66
-14234.9
-16345.2
334.967
3875.19
-7357.21
-7123.06
-7017.82
-5535.38
-1082.07
-983.447
-1173.62
-970.413
-1772.02
-1225.99
-645.79
-555.51
-8155.65
-3837.31
-6929.81
-3220.46
-9269.17
-3694.85
-10976.5
-3904.05
-5414.88
-10260.9
-6996.55
-10741.1
-8639.69
-11612.6
-11318.5
-12587.6
-5279.52
-9293.12
-4790.02
-9254.51
-8160.5
-10833.8
-9365.27
-11217
-13078.4
-13228.4
-14355.7
-13757.2
-5639.58
-9134.26
-6209.06
-9356.04
-596.276
-2329.38
-8007.32
-5569.95
-577.057
-2411.34
-7931.81
-5333.87
-890.085
-2325.15
-7990.53
-5741.17
-1069.73
-2237.36
-7871.17
-5667.93
-1085.7
-1194.73
-1023.58
-1113.54
-2127.36
-2183.12
-1481.05
-1615.89
-8435.38
-7782.34
-4010.06
-4062.67
-3776.73
-5231.63
-4096.06
-371.427
-1921.11
-1333.21
-1423.23
-3632.19
2605.88
-974.285
-13727.7
-11732.9
-10690.8
-9385
-5983.86
-1203.72
-1089.89
-1260.57
-1582.29
-2168.25
-1706.73
-2080.49
-2771.7
-8146.35
-8060.16
-4503.72
-5853.86
-5048.83
-6710.38
-3194.52
-5122.93
-4897.34
-5344.08
-1231.36
-1595.85
-3069.09
-4570.43
-9658.03
-7947.74
-7666.97
-5644.7
-6760.94
-4842.7
-6082.34
-4465.38
-4583.03
-5066.06
-8402.42
-8312.47
-11302.6
-7315.05
-10420
-11200.8
-13044.5
-10991.2
-9574.86
-5990.16
-7067.84
-7073.87
-12293.2
-6017.24
-13087.8
-6056.02
-13921.6
-10845.2
-14675.6
-11058
-10409
-4671.46
-11044.8
-4718.86
-7987.75
-6357.8
-6548.95
-8995.3
-6838.86
-7293.9
-6408.71
-9221.74
-8245.57
-5934.53
-6635.84
-9674.68
-9259.12
-5885.5
-7518.79
-9393.3
-884.481
-760.695
-1144.71
-834.971
-1450.56
-1716.51
-1694.61
-1227.95
-7893.94
-6910.77
-3929.7
-1745.5
-7883.72
-7487.35
-6167.93
-5549.07
-5182.87
-4439.63
-1910.06
-1952.39
-4355.38
-1954.1
-8645.29
-7413.39
-4918.53
-3886.48
-3855.26
-2404.01
-2889.53
-1241.81
-4547.47
-114.53
-244.317
-112.932
-38.8363
25.0511
-230.41
-145.393
-54.1906
12.0538
-659.971
-294.044
-14.4555
186.189
-597.613
-348.416
-55.4666
116.84
-1078.99
-434.895
27.0807
426.48
-1065.44
-526.957
-183.497
15.4239
-731.3
-355.168
-175.355
-56.6657
-559.904
-232.797
-22.7786
122.39
-1611.18
-568.582
-130.724
157.84
-1920.2
-548.064
-90.7379
557.204
-1548.08
-547.251
-88.9621
288.882
-1744.42
-493.455
-119.307
508.822
-1504.65
-523.332
-39.7261
318.159
-1989.42
-564.405
-71.3147
647.123
-1362.04
-442.258
48.4737
457.131
-1968.76
-544.246
-42.1634
699.834
-226.702
-92.517
-14.0901
77.7386
-195.319
-70.5909
-28.4026
74.5825
-584.821
-241.972
-23.1211
200.418
-491.176
-186.188
-75.5192
192.592
-1154.72
-403.469
-9.08496
435.167
-1050.07
-351.9
-85.1679
399.259
-1282.73
-478.781
-92.2823
320.161
-969.875
-334.049
-115.679
445.457
-1758.57
-493.188
-104.009
702.844
-140.705
-52.8917
-16.2904
48.246
-64.0999
-37.0767
-17.366
-0.219464
-424.151
-152.917
-65.7097
115.789
-212.531
-110.937
-60.5885
-9.08972
-753.561
-254.368
-99.7218
209.291
-434.469
-194.61
-95.2505
-8.11862
-1146.95
-366.579
-126.969
316.216
-763.217
-287.086
-126.781
-2.69417
-1512.46
-440.287
-195.492
271.668
-1031.85
-347.34
-166.24
-23.9079
-2025.06
-570.964
-208.356
339.289
-1025.11
-322.622
-135.872
14.636
-1950.81
-560.54
-238.659
282.885
-1133.08
-359.583
-159.843
-10.4367
-1999.64
-522.586
-150.001
437.203
-919.152
-259.554
-84.1531
65.85
-1898.08
-447.2
-85.177
494.13
-814.29
-184.383
-28.7616
108.999
-7.2841
-11.7934
-8.59057
-5.84216
-4.49106
-30.8261
-22.9323
-14.8074
-9.74706
-7.43597
-14.4101
-26.8941
-19.6241
-13.2743
-10.1336
-66.6426
-50.7506
-32.7957
-21.5025
-16.3596
-8.6647
-32.355
-24.0676
-16.2963
-12.4095
-86.9487
-66.7446
-42.8761
-27.9448
-21.1909
-42.1523
-33.4534
-21.5842
-14.0461
-10.6483
-5.92787
-14.3414
-10.6478
-7.17705
-5.51608
-20.3532
-35.1292
-24.9016
-16.6178
-12.6961
4.91217
-11.8361
-9.35561
-6.39247
-4.91831
-52.7354
-48.3283
-31.602
-20.6687
-15.6805
-1.79278
-13.6056
-10.0097
-6.75344
-5.19425
11.6576
-16.9058
-14.026
-9.65716
-7.43441
8.70335
-9.51199
-7.85683
-5.38514
-4.14359
43.5418
-1.7438
-5.59968
-4.41567
-3.56786
29.2289
0.45741
-2.22705
-1.86857
-1.54077
-0.58969
-8.2932
-6.39246
-4.42143
-3.4183
-7.04523
-8.14068
-5.59673
-3.77925
-2.90637
-10.7351
-23.361
-16.8435
-11.4301
-8.76182
-24.4291
-23.1259
-15.3224
-10.2232
-7.83167
8.22047
-25.2806
-19.6538
-13.5448
-10.4108
-40.2487
-33.7488
-21.8499
-14.5013
-11.0415
-48.4035
-40.1789
-25.663
-16.7749
-12.6949
-44.6454
-28.295
-17.4515
-11.4275
-8.62695
-33.738
-23.2645
-14.3631
-9.27983
-7.02052
-63.5016
-202.622
-117.087
-517.526
-65.891
-715.202
216.228
-648.239
480.402
-109.596
-769.777
-1254.47
92.5066
-75.1054
-1151.64
-1796.81
-1432.64
-2036.89
-580.889
-137.107
-31.0072
-6.85223
-1.71676
-155.714
-84.7384
-11.8414
-3.24621
-1.44738
-1795.37
-420.208
-95.2704
-20.9399
-5.25234
-374.599
-113.806
-29.0933
-6.26274
-1.71811
-3028.15
-708.268
-160.915
-35.4817
-8.88054
-648
-201.827
-50.4037
-11.8699
-3.00719
-4086.07
-955.154
-217.683
-48.131
-12.0607
-815.448
-263.629
-66.8575
-15.7767
-3.96831
-5153.47
-1210.91
-277.403
-61.6007
-15.4962
-974.588
-331.253
-85.1758
-20.208
-5.12011
-6197.85
-1495.36
-346.605
-77.5296
-19.5758
-1539.5
-468.86
-115.415
-26.4367
-6.60387
-5740.1
-1380.14
-318.643
-71.0097
-17.88
-1208.54
-396.611
-100.414
-23.4555
-5.87124
-6417.6
-1551.26
-360.238
-80.6959
-20.4028
-1734.89
-513.338
-124.697
-28.1875
-7.0253
-6709.02
-1608.61
-374.134
-83.7721
-21.1676
-1796.33
-533.902
-130.94
-27.5082
-7.25607
-530.63
-6776.5
-6001.97
-2202.35
-1562.76
-935.904
-3678.94
-2689.99
-6346.77
-5936.49
-3017.7
-2278.9
-406.994
-621.541
-1063.14
-1719.03
-2562.04
-3507.32
-293.142
-627.77
-1301.87
-2257.46
-3381.51
-4509.13
-309.931
-142.863
-530.76
-363.619
-974.558
-810.611
-1619.97
-1507.24
-2316.03
-2232.71
-3012.03
-2728.83
-4312.14
-4831.36
-5212.12
-7691.72
-8560.97
-9401.52
-5429.68
-5927.37
-5857.65
-5310.76
-4520.61
-3934.84
-367.746
-311.616
-236.737
-147.828
-50.2528
-561.259
-475.256
-360.807
-225.187
-76.5298
-959.349
-811.692
-615.772
-384.123
-130.515
-1549.62
-1309.66
-992.6
-618.824
-210.209
-2305.86
-1945.58
-1472.63
-917.469
-311.602
-3148.15
-2649.29
-2001.65
-1246.29
-423.36
-264.749
-224.242
-170.286
-106.297
-36.1258
-566.608
-479.535
-363.882
-227.028
-77.1411
-1174.24
-993.045
-753.06
-469.657
-159.562
-2034.02
-1718.27
-1301.88
-811.551
-275.681
-3041.87
-2565.47
-1941.47
-1209.65
-410.909
-4046.12
-3404.44
-2572.56
-1602.38
-544.526
-280.145
-237.446
-180.431
-112.692
-38.317
-129.139
-109.459
-83.177
-51.9496
-17.6639
-479.46
-406.129
-308.422
-192.537
-65.4453
-328.516
-278.315
-211.386
-131.971
-44.8597
-879.792
-744.703
-565.161
-352.635
-119.832
-731.918
-619.659
-470.34
-293.497
-99.7374
-1460.97
-1235.27
-936.503
-583.924
-198.358
-1359.42
-1149.47
-871.435
-543.302
-184.542
-2085.37
-1760.14
-1332.41
-829.983
-281.829
-2010.28
-1696.49
-1283.79
-799.34
-271.334
-2703.95
-2275.15
-1718.02
-1068.82
-362.825
-2449.2
-2059.58
-1553.58
-965.274
-327.357
-3852.8
-3229.03
-2434.25
-1515.95
-515.777
-4280.99
-3564.17
-2680.47
-1673.91
-572.842
-4546.49
-3743.94
-2811.1
-1772.49
-617.638
-6503.86
-5263.46
-3967.76
-2576.96
-950.809
-6844.39
-5396.63
-4113.81
-2823.87
-1175.42
-7196.27
-5573.2
-4286.45
-3064.5
-1384.61
-4853.76
-4070.54
-3070.82
-1913.47
-651.156
-5267.98
-4397.52
-3312.19
-2067.89
-706.326
-5157.82
-4276.96
-3217.77
-2019.51
-696.04
-4600.11
-3775.47
-2841.88
-1806.95
-637.18
-3789.02
-3053.87
-2308.23
-1512.35
-564.908
-3179.59
-2513.54
-1910.01
-1294.34
-514.653
-428.606
-687.703
-1177.64
-1887.27
-2792.15
-3787.44
-323.518
-720.646
-1460.48
-2481.6
-3657.94
-4800.24
-330.731
-160.761
-594.729
-419.778
-1086.76
-912.661
-1789.08
-1666.78
-2561.15
-2507.64
-3327.96
-3142.84
-4603.05
-5101.33
-5459.71
-7841.88
-8627.15
-9422
-5677.26
-6075.33
-5884.37
-5238.43
-4417.86
-3887.94
-387.385
-328.376
-249.564
-155.887
-53.0013
-621.429
-526.647
-400.177
-249.94
-84.977
-1063.63
-900.929
-684.272
-427.263
-145.25
-1703.26
-1441.58
-1094.22
-683.004
-232.167
-2516.86
-2127.62
-1613.58
-1006.86
-342.26
-3406.86
-2874.43
-2177.5
-1358.62
-462.046
-292.354
-247.79
-188.302
-117.612
-39.9853
-651.047
-551.632
-419.094
-261.732
-88.9819
-1318.67
-1116.63
-847.912
-529.387
-179.963
-2238.69
-1893.98
-1437.23
-897.038
-304.928
-3295.35
-2784.22
-2110.87
-1317.12
-447.769
-4314.94
-3638.37
-2755.28
-1719.13
-584.737
-299.024
-253.541
-192.738
-120.417
-40.9507
-145.377
-123.291
-93.7431
-58.5776
-19.9233
-537.594
-455.739
-346.392
-216.392
-73.5831
-379.518
-321.803
-244.643
-152.851
-51.9795
-981.925
-832.038
-632.149
-394.796
-134.228
-824.784
-699.047
-531.215
-331.8
-112.814
-1615.39
-1367.83
-1038.6
-648.398
-220.414
-1505.29
-1274.88
-968.176
-604.47
-205.481
-2310.08
-1953.96
-1482.43
-925.096
-314.442
-2262.51
-1914.24
-1452.48
-906.38
-308.052
-2995.75
-2529.12
-1916.39
-1195.51
-406.438
-2830.86
-2391.01
-1811.87
-1129.94
-383.985
-4124.96
-3469.39
-2624.79
-1639.16
-558.52
-4539.45
-3798.19
-2870.51
-1799.27
-616.916
-4792.64
-3975.07
-3005.2
-1904.29
-665.056
-6678.36
-5447.5
-4138.24
-2703.27
-1000.35
-6945.07
-5514.62
-4232.8
-2920.85
-1219
-7233.61
-5618.58
-4333.8
-3104.87
-1403.77
-5085.47
-4275.31
-3233.29
-2018.62
-687.658
-5411.45
-4529.28
-3420.68
-2140.25
-731.922
-5192.75
-4317.49
-3257.63
-2049.64
-707.547
-4545.78
-3740
-2823.91
-1801.42
-637
-3705.53
-2991.04
-2267.52
-1492.2
-560.186
-3141.05
-2483.82
-1890.16
-1284.22
-512.229
-19705.8
-14376.4
-5223.68
-4234.85
-3222.26
-4533.81
-4140.85
-12970.3
-14624.2
-11579.3
-13364.8
-7986.02
-11346
-6122.8
-6386.2
-4676.6
-20430.7
-11345.7
-4407.9
-7212.65
-9355.92
-6461.27
-7189.33
-5449.39
-3361.73
-4883.22
-5382.86
-5528.06
-19336.2
-13000.4
-12839.9
-9222.73
-9246.96
-9749.51
-4698.77
-5963.71
-7330.69
-14218.1
-12499.1
-10715
-10150.4
-8931.59
-9434.35
-6539.07
-5164.96
-4044.89
-2114.43
-4645.66
-3885.73
-2937.26
-1842.67
-632.644
-3800.17
-3199.7
-2421.68
-1511.69
-514.718
-2888.56
-2428.52
-1834.58
-1143.03
-388.629
-4076.53
-3437.25
-2601.74
-1622.01
-551.311
-3705.86
-3112.23
-2351.39
-1467.08
-499.679
-9602.76
-8097.36
-6788.45
-6243.17
-6298.21
-10995.2
-9593.59
-7860.41
-6353.65
-3807.88
-8381.72
-5924.23
-4511.15
-3186.47
-1400.69
-10012.9
-8351.02
-6611.42
-4898.39
-2384.79
-6774.25
-5455.09
-4044.74
-2539.12
-887.843
-8932.29
-6684.67
-4913.19
-3140.38
-1155.98
-5318.32
-4354.82
-3246.04
-2026.36
-697.536
-5526.04
-4511.47
-3357.85
-2096.76
-722.807
-4096.43
-3374.84
-2520.1
-1568.87
-536.719
-14518
-11763.4
-9946.73
-8973.01
-8373.06
-8866.82
-6836.13
-5247.91
-3647.57
-1620.88
-3820.74
-3129.68
-2341.88
-1473.74
-514.276
-6275.82
-5169.16
-3896.53
-2476.07
-875.8
-7920.2
-6441.32
-4896.73
-3219.97
-1226.3
-5602.9
-4611.45
-3488.99
-2235.77
-799.317
-6309.02
-5234.17
-3961.79
-2516.63
-883.192
-4813.1
-4003.69
-3020.35
-1899.34
-655.939
-2976.47
-2474.69
-1857.27
-1156.52
-394.554
-4356.3
-3647.46
-2750.25
-1715.04
-584.554
-4726.46
-3906.02
-2927.64
-1830.46
-629.538
-4880.81
-4055.8
-3053.62
-1915.02
-659.697
-13766.2
-11705.7
-10068
-9250.18
-8307.29
-9218.07
-6738.2
-5305.28
-4014.52
-2067.86
-9970.61
-8207.6
-6503.69
-4916.95
-2402.77
-7427.1
-5790.29
-4467.77
-3097.48
-1270.81
-7858.04
-6417.35
-4895.26
-3229.75
-1225.27
-7848.08
-6104.88
-4705.46
-3254.46
-1322.38
-4120.61
-3414.16
-2579.61
-1635.23
-572.672
-5310.51
-4442.3
-3352.5
-2096.14
-716.584
-6414.05
-5304.22
-4005.25
-2540.94
-890.596
-492.816
-1399.55
-2218.52
-2987.38
-3715.59
-4394.81
-2594.9
-6975.33
-6639.27
-2544.72
-8876.59
-7441.25
-8894.46
-9853.42
-2349.97
-1517.95
-5457.67
-3166.85
-10405.5
-7361.53
216.244
-2107.27
-5820.06
-5464.13
-2052.23
-7562.09
-6080.23
-7471.65
-8420.75
-1946.14
-899.431
-4687.76
-1663.78
-8642.44
-4410.32
1506.56
-1542.91
-4436.7
-4155.37
-1508.35
-5989.22
-3674.48
-6078.45
-6743.13
-1470.45
-818.488
-3327.57
-1727.76
-6919.28
-1782.39
1643.11
-1140.18
-3444.77
-3295.48
-1156.15
-4600.05
-2256.22
-5067.05
-5970.11
-1109.59
-859.063
-2441.81
-1744.01
-6105.73
-387.386
1235.08
-924.424
-2929.78
-2848.79
-978.379
-3710.49
-1878.2
-4557.31
-5803.31
-881.055
-934.233
-1763.46
-1674.05
-5337.08
-171.604
127.147
-818.483
-2621.69
-2621.87
-888.388
-3443.19
-2132.97
-4229.88
-5553.53
-682.898
-733.188
-1464.04
-1640.75
-5250.61
-953.942
-466.634
-1387.38
-3397.14
-4924.46
-1902.93
-5505.82
-9610.85
-7229.31
-10425.7
-1020.35
-731.941
-3906.08
-2442.9
-1222.56
-9270.67
-4862.84
-1294.83
-3177.61
-4341.78
-1659.11
-5107.74
-8719.65
-6548.78
-8913.28
-1047.73
-653.688
-4060.42
-2325.93
-402.199
-9129.95
-3693.87
-1146.19
-2822.35
-3581.73
-1342.29
-4679.04
-7854.94
-5609.39
-7897.51
-938.43
-752.59
-3505.06
-2438.87
-610.871
-7440.57
-3558.46
-1000.35
-2564.13
-2998.84
-1100.43
-4397.62
-7193.77
-5031.42
-7223.42
-870.132
-767.801
-3274
-2559.8
-399.311
-6953.35
-3622.44
-910.875
-2320.96
-2681.46
-969.861
-4019.62
-6648.68
-4618.38
-6898.7
-821.207
-827.085
-2999.89
-2780.67
-531.428
-6716.91
-3718.11
-849.837
-2080.82
-2497.07
-896.647
-3724.1
-6579.34
-4307.21
-6688.81
-854.662
-954.683
-2683.52
-2648.25
-779.221
-6887.24
-4120.11
5939.75
7499.52
15566.8
22739.7
23145.2
39894.6
17798.4
45326.3
14511.1
31859.3
21720.1
32966
19476
25578.5
7355.3
8335.81
14550.8
16651.3
18815.1
18662.4
14833.8
18343.4
21865.1
19633.7
4887.78
3695.08
6000.7
4038.71
12277.3
9760.15
21033.7
15188.6
16250.7
16902.3
18025.5
17145.2
6279.72
4922.8
38578.1
51651
24913
30593.2
51946.2
67395.7
26872.2
30763.1
28567.5
40364.9
24909.3
33037.1
14558.9
23490.8
2621.5
897.263
2692.46
980.39
8363.48
3369.66
11535.2
4237.01
8176.17
3139.26
8726.77
2794.91
14913.1
4741.06
19251.7
6489.8
23666.2
11726.6
21663.8
12844.9
22242.9
14383.1
19558.6
14734.8
16990.1
10087.2
16978.1
8628.92
22348.8
14314
22396.9
14453.6
20653.4
15611.9
20903
15690.1
18358.3
11668.4
19017.9
11961.6
17333.1
7486.77
7988.55
9702.96
17406.6
8176.75
6951.77
9806.73
18364.8
7460.98
9069.79
9791.52
19279.7
7645.7
9873.32
10239.5
3383.94
3651.73
1157.95
2202.11
10513.1
11116.6
4039.59
7128.99
13515.6
15042.4
6466.05
10976.2
12262
1154.17
13451.9
16500.7
8910.86
817.141
7491.59
12042.6
19360.7
13291.2
9745.84
11795.1
10259.3
8802.9
13786.4
3173.02
2599.97
1789.61
1800.61
9835.48
8336.96
5926.49
5626.88
12270
10459.6
7675.08
6897.85
5876.79
7458.18
12095.2
12510.7
13915.4
12670.6
15674.5
13684.2
10504.4
8837.16
9008.14
9549.76
11871
9470.62
10788.8
7948.57
9306.96
6495.73
10775.8
7096.99
10191.5
4881.49
8728.57
9519.94
12507
16383.7
13751.5
20060.7
6928.93
7754.16
9014.56
3024.26
7770.29
15022.2
7367.16
16085.2
13610.5
24749.7
13846.1
26243
5852.49
12871.7
5309.91
13697.3
8068.62
6160.59
11186.5
4482.25
8343.48
1804.31
9775.51
889.852
7738.9
9178.26
11713.6
5439.05
6391.07
10803.6
10355.6
7121.05
2052
1833.19
1681.16
1512.51
1405.18
1278.54
6873.21
5689.27
4960.27
4400.86
3574.36
3121.57
8449.76
7355.86
6824.81
5275.38
4359.91
4143.63
6605.56
5906.34
5783.79
10961.2
8445.36
7160.33
10258.7
7689.31
6292.47
10783.9
8614.31
7536.73
6606.48
4418
3478.06
15775.9
13791.1
12035.1
10078.8
8484.56
7122.26
8883.15
6998.73
5660.96
7403.41
5424.43
4230.73
7523.49
4237.66
2432.08
10255.7
13934.2
8087.88
10496
11005.6
16203.5
9814.02
14332.2
87.2162
643.163
-415.14
61.905
2961.62
3435.93
1225.64
740.044
668.75
2385.17
9335.81
13656.4
6625.41
3608.61
9790.02
9719.16
15043.9
16569.2
-602.858
-4079.09
7509.12
7087.01
7095.57
5477.88
899.814
501.04
556.675
224.391
2058.75
241.174
-285.338
-832.888
9204.64
2431.14
6202.57
1641.01
8948.93
2744.08
10836.6
3513.47
8750.07
11874.9
8102.71
11594.9
14000.5
14869.1
13374
14097.3
5649.64
9467.46
6512.49
9396.55
8601.97
11180.1
9493.26
11306.9
13937.8
13857.1
14599.2
13926.2
5706.53
9173.72
6213.03
9355.52
-39.4689
1470.07
7560.77
4888.71
-611.956
1052.36
7005.09
4329.79
413.558
1718.66
7739.14
5322.2
872.382
1992.49
7794.61
5522.89
-644.435
-742.122
164.507
24.4489
-2866.09
-2912.19
-178.387
-322.547
-540.992
-1948.17
1776.79
1138.54
-10247.9
-9496.61
-5560.68
-4227.74
-359.639
-10428.7
-10805.3
-4325.99
-6377.69
-741.698
10148.7
8022.04
7224.87
6877.84
4323.12
-781.411
-733.116
-39.5223
68.8733
-2548.08
-2556.96
-18.6122
249.651
-2586.61
-3205.06
804.798
1176.03
-5135.66
-2374.72
-8213.3
-5210.26
-3664.48
-2818.89
-4119.27
-3625.99
591.214
1600.64
3741.28
2365.8
1034.7
-1045.15
1060.32
-746.833
1854.87
492.221
2352.68
2711.77
5261.43
4834.96
9991.94
6052.61
8094.02
8189.97
12292
9984.3
7992.18
4762.06
4026.24
4025.74
11772.7
5229.05
12951.3
5863
13708.9
10190
14631.6
10915.9
9675.12
3898.6
10836.3
4511.75
6477.31
5238.08
5202.97
7729.25
4244.13
4825.42
4469.35
7169.94
7452.32
5200.5
5868.25
8864.98
9009.92
5653.56
7269.48
9160.44
-770.27
-818.186
-924.428
-36.5765
-301.788
-336.851
-2920.33
-3161.59
-3182.55
-167.289
-861.796
-878.477
-3710.84
-4208.42
-4347.54
685.152
-844.937
-1162.72
-1304.45
-1124.78
-824.234
-3906.9
-4026.21
-3774.14
-3203.24
-3666.98
-3625.85
-3961.54
-4327.66
-4250.15
1502.83
-365.235
-515.423
3431.07
1939.09
1006.82
-1079.71
-2271.78
-2909.37
-1015.3
-2560.67
-3237.11
-417.294
-2109.6
-2600.98
2539.98
-528.37
-898.084
-21.1834
-36.77
-50.6193
-77.2173
-255.382
-147.742
-125.425
-123.949
-1.00551
-81.1531
-194.82
-309.504
-440.059
-292.656
-333.705
-368.448
244.854
-31.6995
-277.006
-547.156
-158.325
-241.677
-320.043
-371.443
-36.3474
-146.622
-157.469
-157.282
222.508
4.9137
-129.464
-223.384
993.668
202.476
-113.362
-340.203
1557.09
361.319
-15.061
-580.221
698.064
84.883
-197.563
-493.637
1282.97
274.978
4.26525
-508.824
1055.53
242.383