/*--------------------------------*- C++ -*----------------------------------*\
  =========                 |
  \\      /  F ield         | OpenFOAM: The Open Source CFD Toolbox
   \\    /   O peration     | Website:  https://openfoam.org
    \\  /    A nd           | Version:  11
     \\/     M anipulation  |
\*---------------------------------------------------------------------------*/
FoamFile
{
    format      ascii;
    class       volScalarField;
    location    "2.9";
    object      gradTy;
}
// * * * * * * * * * * * * * * * * * * * * * * * * * * * * * * * * * * * * * //

dimensions      [0 -1 0 1 0 0 0];

internalField   nonuniform List<scalar> 
5712
(
11382.5
6562.65
18475.4
12097.3
20140
14899
31645.3
39157.9
41572.8
50811.7
26873.8
23332.5
17077.9
13520.4
8567.07
5792.46
19171.7
19679.9
16483.8
19404.4
25889.7
23199.7
29803.3
24197.4
8059.69
5831.48
4520.47
3355.66
9667.47
7888.16
5846.84
4713.27
17434.5
18163.7
17870.6
15194.4
14012
10878.7
10921.7
12387
17619.5
17513.3
36839.2
38067.3
26185.4
26943.9
14849
12525
16231.3
11585.2
7550.7
7734.99
6121.22
8378.43
3197.6
3802.01
8405.7
11290.9
4989.63
5768.68
9360.32
15408.6
6466.99
10474.7
2474.8
6249.07
2057.71
4673.74
17411.3
21485.5
17883
21344.4
21325.7
21580.4
21631.5
21248
15166.7
20517.5
15662.4
20298.5
17576.3
21167.8
17548.8
21102
21758.5
20941.2
21657.3
20723.6
13988
20586.6
13490.3
20651
16921.1
19687.4
21378.9
29577.8
17903.3
22609
21169.4
31963.9
16055.2
17389.8
21479.8
28518.9
15889.6
16302
21719.1
28343.8
4876.11
6315.28
12383.5
21344.3
6100.61
6886.73
16069.3
24481
7681.58
7742.54
20546.4
27661.2
23935.2
25899.8
20062
19199.1
27331.6
26148.9
24548.8
20513.3
17664.6
31044.8
23787
23356.2
20654.1
20274.8
35777.6
1917.04
2290.87
4055.12
9003.92
2738.18
3069.93
5675.52
10235.6
4130.86
3488.88
7807.56
11937.2
26060.7
26053.6
23384.7
23292.9
19818.7
18423.7
14919
13321.6
10366.3
14179.4
23643.8
23085.5
23692.1
23538.3
20436.1
19323.9
16746.7
15097
11094.6
14438
23357.1
26386.5
23253.7
26977.8
22700.1
23637
22115
23726.8
21086.1
21487.8
20925.4
20887.8
23054.2
27068.9
22931.1
27023.6
21443
23978.6
21247.3
23901.5
21167.1
21440.8
21151.4
21420.2
17637.2
16781.3
11333.1
12548.1
17499.2
16316.5
11144.6
12525.6
17897.5
16749
11589.8
12634.5
17972.6
16586
11955.2
12658.9
1595.99
1114.43
791.246
945.621
675.59
634.61
2206.73
1378.3
1068
1883.84
1550.19
1362.59
2620.99
2276.29
2323.29
3332.75
2790.23
2538.23
25329.5
23319.1
21840.1
23168.5
21864.3
20731.6
16546.4
15642.4
15154.5
11110.6
9870.23
9357.66
5064.38
3847.67
3309.44
22808
21553.1
20366.7
23233.4
21610.4
20257
17084.1
15029.9
13843.5
11065.8
9101.71
8307.54
5398.04
3840.64
3132.09
26362.2
25928.5
28619.4
25796.1
29461
25832.1
35454.6
27108.1
20486.2
20912.6
20190
18785.3
22997
21763.1
22512.8
19279.2
22251.3
22185.1
20583.2
22140.9
27601.1
24633.8
27104.4
27482.2
29363
30328.3
22538.8
23369.9
20243.3
19638.2
24613.5
25212.8
16125.1
8452.55
14993.4
9391.36
16356.6
8524.23
14926.3
9316.38
16174.9
8575.65
14921.3
9727.75
14481
10190.7
14639
10103.6
20849.3
17946.5
20630.8
17862.9
22969.7
20846.5
23100.1
20577.9
20228
14948.5
21211.9
14803.6
21022.9
17742.4
21256.7
17529.2
23627.1
20369.4
23611.5
20092
19964.6
14963.7
19874.1
14863
13224.9
8595.17
11789.4
7213.19
12369.4
7670.84
11358.8
6708.29
13518.2
9156.4
11959.9
7443.08
13517.9
9508.74
11919.4
7493.84
2449.54
1225.5
4305.17
2024.44
2629.16
1548.32
4601.17
2531.91
3280.58
2428.37
5142.72
3511.71
13094.8
20232
9379.2
8956.9
6040.69
19903.6
13926.6
8121.56
8145.16
4886.37
20594.6
16300.3
12987
10036.6
5819.71
605.595
458.286
907.328
545.98
939.986
639.617
1534.39
1153.96
1751.8
1423.13
2512.83
1989.97
20378.3
20058.7
13931.8
13667.9
9074.91
9459.43
7610.59
7282.31
4109
3346.23
19028.1
17604.9
14881
13386.9
11651.8
10692
8794.78
8273.89
5125.87
5367.12
15159.1
12613.7
15199.7
12241.5
18052.8
15253.7
17944.8
14942.5
12834.9
10768.3
12483.3
10864.7
15169.3
12008.3
15065.5
11978.2
17840
15169.9
17652.8
15106.8
13046.3
10567.2
13019.8
10709.7
9957.78
8771.03
6187.63
6945.47
9614.3
8619.1
5873.94
6601.77
10383.4
8938.55
6351.21
7394.95
10646.4
8948.25
6626.02
7510.29
2115.42
1881.04
1563.73
9474.65
5013.22
4090.58
2027.87
2032.86
1814.15
10160.3
5878.1
4983.6
2756.63
3138.55
3236.19
11052
7286.6
6508.61
19335.4
18462.8
17749.5
13521.3
13426.9
13317.3
10086.1
10214.5
10321.5
8918.63
8804.52
8665.42
12414.6
8935.38
8115.21
16422.2
15517.2
14848.5
12545.5
12004.9
11664.4
10721.7
10227.5
9897.15
10646.2
9641.16
9009.4
15037.7
10062.7
9101.49
4434.51
2765.41
2102.65
2024.38
5087.63
3061.33
2240.62
2073.13
4446.86
2752.8
2104.96
2041.42
5203.41
3127.71
2281.38
2088.4
4406.83
2698.53
2084.59
2009.88
5302.71
3159.15
2309.91
2057.38
5753.37
3379.97
2395.68
2181.25
5941
3528.79
2492.89
2283.05
4726.24
2893.51
2165.41
2024.44
3621.65
2406.35
1930.1
1945.86
4031.62
2551.41
1982.46
1856.27
3252.7
2230.8
1837.2
1856.77
5186.46
3149.48
2298.71
2137.86
3838.01
2534.2
1990.96
2018.01
5442.51
3320.25
2389.61
2212.04
3926.04
2623.49
2037.66
2051.94
3143.28
2270.42
1867.54
1906.73
1671.52
1663.75
1577.51
1784.79
3135.13
2246.72
1858.6
1899.45
1769.95
1689.76
1587.43
1795.09
3200.38
2228.63
1853.25
1898.58
2101.91
1786.21
1624.29
1842.89
3102.38
2132.28
1793.37
1928.05
2378.85
1847.04
1664.89
1820.81
2753.42
2023.86
1728.2
1823.27
91.2992
1160.24
1188.18
353.577
-1788.51
869.802
1016.64
386.64
352.814
1244.75
1219.02
375.547
-1441.02
965.957
1044.8
395.99
839.209
1393.29
1271.45
375.441
-861.308
1126.47
1089.4
402.389
1422.85
1565.09
1336.08
410.775
-266.211
1299.32
1148.22
421.86
1781.62
1714.99
1414.27
488.427
-170.303
1421.23
1201.89
438.726
1910.82
1868.2
1456.55
460.307
-639.301
1528.28
1296.07
467.42
1860.41
1800.3
1425.7
460.873
-656.912
1477.89
1249.89
450.657
1912.23
1916.13
1489.6
425.79
-733.514
1573.11
1331.54
471.504
1963.33
1969.33
1538.48
438.09
-625.527
1628.27
1373.68
485.291
2049.19
1649.54
1185.78
711.036
236.688
2025.17
1646.2
1186.64
711.934
237.001
2073.95
1661.99
1192.1
714.06
237.583
2054.24
1662.17
1195.13
716.089
238.246
2119.11
1679.81
1200.32
717.893
238.712
2089.34
1681.44
1205.19
721.017
239.733
2124.34
1703.89
1218.58
727.944
241.867
2175.52
1736.53
1237.83
737.896
244.934
2166.99
1701.53
1212.26
723.891
240.544
2315.41
1728.33
1220.04
726.875
241.376
2176.03
1695.84
1206.44
720.539
239.47
2311.27
1718.55
1213.62
723.483
240.312
2188.7
1721.4
1224.29
730.159
242.486
2357.98
1747.58
1230.99
732.532
243.13
2237.62
1752.98
1242.4
739.441
245.347
2409.83
1775.69
1246.67
740.557
245.614
2106.94
1657.61
1185.7
710.31
236.413
2217.28
1666.58
1185.93
709.893
236.248
2129.91
1667.41
1190.39
712.503
237.052
2235.4
1673.94
1189.5
711.576
236.743
2176.15
1683.85
1197.81
715.949
238.057
2275.29
1687.33
1195.89
714.606
237.63
2253.52
1702.92
1205.33
719.327
239.034
2322.97
1701.81
1203.23
718.122
238.647
2327.62
1712.8
1209.61
721.345
239.632
8850.41
13529.3
9333.67
13860.2
10060.6
14313.1
10604.3
14652.1
10278.4
14206.3
9673.95
10871.8
9631.9
11298.4
9760.08
10830.6
9946.43
10988.8
7796.88
1331.3
283.397
63.3173
11.1769
8658.3
2459.01
595.186
134.553
23.7452
7908.63
1325.25
279.916
62.2793
10.9618
8771.68
2456.98
592.109
133.175
23.2952
8041
1327.87
277.876
61.5221
10.802
8894.71
2461.94
589.664
132.064
23.0589
8041.81
1298.78
269.168
59.4104
10.4207
8865.22
2428.93
579.272
129.453
22.5722
7703.62
1212.82
250.722
55.4848
9.75123
8469.05
2323.65
555.752
124.509
21.7375
6974.11
1141.88
243.725
54.8024
9.70287
7132.58
2050.67
503.159
114.534
20.1798
7175.39
1155.76
243.745
54.4619
9.61163
7497.12
2151.08
523.182
118.162
20.711
6906.57
1141.98
244.943
55.2167
9.78634
7026.39
2009.5
493.625
112.731
19.9182
6896.21
1135.86
243.501
54.9249
9.72739
7053.46
2003.61
491.051
112.429
19.8349
32602.9
46097.4
45070.5
31666.3
18719.6
19677.9
27608.7
28788
21545.3
24104.1
34214.5
46560
43202.7
57126
28238.4
32137.7
22201.4
23682.4
12062.5
13212.2
4953.42
3327.06
990.808
787.714
878.524
780.759
928.723
4909.05
4923.98
3013.23
4257.31
4133.53
1836.63
2488.56
2293.53
1544.8
1767.62
1469.55
4409.71
2480.25
1653.72
1473.93
1830.89
1601.76
1282.17
1226.6
1169.32
1038.53
1369.88
1244.8
4580.52
2843.96
3243.44
2125.26
1783.69
2447
1309.72
1059.51
1429.03
10160.6
10440.8
10869
12490.9
21163
7439.13
8689.37
9695.32
11099.9
13114.8
2614.85
3757.47
4644.05
5259.25
5580.97
2092.67
3034.73
3775.48
4287.53
4550.61
2330.61
3371.21
4181.83
4736.28
5018.58
2075.6
3012.2
3747.94
4254.29
4512.89
2458.92
3547.61
4393.68
4974.66
5272.82
10407.5
10894.2
10969.4
11904.5
19143.7
10406.6
10705.9
10586.6
11047.8
12786.8
6982.48
8403.59
9228.03
10021.3
10924.9
9286.18
9901.72
9815.11
9886.77
10227.4
9004.29
9673.12
9537.45
9421.46
9494.42
4606.74
6156.31
7184.66
7868.69
8256.12
5959.25
7470.61
8337.21
8938.18
9361.41
5558.56
7065.5
7910.33
8408.37
8678.07
3956.84
5439.73
6472.87
7147.1
7497.54
4450
5967.87
6959.01
7580.78
7900.73
3785.27
5241.93
6265.48
6926.15
7259.85
9536.67
10335.2
10721.9
11932.2
19418.8
5948.14
7529.29
8594.17
9552.44
10491.7
4209.8
5747.72
6829.36
7575.88
8004.7
3793.94
5264.73
6340.1
7092.73
7518.66
4596.41
6174.85
7293.51
8135.2
8706.01
4092.28
5630.55
6764.25
7599.97
8112.97
3336.2
4705.43
5747.98
6492.16
6908.54
3206.46
4544.98
5557.35
6257.78
6630.77
3067.6
4363.66
5334.81
5984.62
6314.4
2739.08
3928.19
4837.68
5454.64
5769.34
3551.86
4970.7
6004.16
6697.01
7059.75
3250.38
4597.06
5604.42
6290.92
6651.3
9639.71
10204.5
10678.5
12175.6
20348.9
6570.53
7999.78
9093.73
10371.1
11940.8
7601.24
9060.88
9939.74
11259.3
13912.2
5223.93
6864.32
8082.92
9159.64
10055.4
4499.97
6099.76
7284.31
8217.82
8857.51
5879.67
7486.8
8625.36
9706.78
10783.9
3405.19
4794.51
5843.02
6583.24
6993.17
2789.95
3994.16
4917.21
5550.17
5878.21
3689.09
5142.94
6221.92
6986.96
7422.07
17851.2
11837.5
18404.2
13122.4
23888.8
34000.7
24942.3
33815.1
18943.4
20081.5
16231.9
19370.8
21572.9
20567
27369.4
22513.4
13722.9
12764.6
6722.24
5711.3
14969.8
13625
7728.37
6284.43
18490.5
20012.5
18996
17371.3
19314.9
12726.5
10703.2
12341.5
17492.8
17469.4
36254.4
37931.4
25427.4
26733.4
15393.2
12638.2
16850.7
11690
8158.4
7880.23
13357.6
14736.6
5593.32
6083.53
14721.5
16735.6
6986.22
7692.24
14080.6
19580.9
8182.14
12565.7
2868.33
6965.64
2135.79
4813.52
17700.2
20273.9
17633
20633
19387.2
19703.3
20390.4
20190.7
16034.1
20309.6
18181.8
20022.7
17341.9
20785.5
17460.3
20978
21115.2
20398
21466.7
20554.8
14225.1
20448.5
13521
20598.9
17763.1
20921.1
21590.7
29944.4
19335.6
24723.4
21642.4
32754.7
16431.9
17975.1
21551.8
28674.2
15984.6
16462.9
21729.5
28383.8
18304.7
19790.7
22867.3
33836.5
18448.6
18904.1
24493.5
34307.1
18229.8
17935.1
26396.4
34100.1
17917.8
18872.6
19040.9
20143.8
30069.6
18161.8
16892.9
20350.8
18450.3
34318.8
18945.4
19672.1
19411.9
20903.8
37181.4
11119.8
10214.9
10224
13148
12167
11192.8
10601.9
13528.6
13380.9
11657.6
11104.3
13854.5
17669.6
17092.3
16504.6
16140
18930.2
17797.8
15575.5
14080
11645.3
14477.3
18665.8
18561.5
19678.9
19898
18780.5
17743.1
16946.1
15088.6
11483
14023.6
21404.4
24150.6
22253.7
25769.6
20332
21309.4
20963.3
22570.1
20526.7
20775.9
19978.9
19744.4
22560.9
26478.2
22780.5
26846.7
20900.1
23414.4
21085.7
23736.1
20861.6
21072.6
21054.2
21309
17478.3
16492.8
11354.8
12465.6
17373.2
15990.1
11306.9
12475
17781.2
16576
11575
12571.8
17930.5
16529.8
11945
12634.6
9381.84
9523.31
4015.92
3707.42
10466.5
10139.7
4500.82
4314.84
10210.4
9594.73
5132.01
4963.47
16942.6
16507.3
16426.3
16550.1
16287.3
15848
12186.9
10954.3
6045.21
5012.11
18989.6
18305.1
20147.6
19442.2
15902.3
14815.3
11368.6
9823.73
5567.68
4219.12
21601
20611.7
26376.4
23130
23979.7
21450.4
32702.9
24768.1
19747.3
16304.2
21451.3
17060.5
19646.1
16599
21547.7
17288.5
20105.8
17895.7
18280.4
17082
20805.9
21968.5
25753.5
27069
28210.9
29990.9
21184.6
22888.5
19210.7
19342.6
23089.5
24699.1
13265.7
9653.99
13661.4
9878.17
13554.1
9562.79
13840
9721.01
13530.9
9421.68
13831.8
9916.37
13855.6
10223.4
14437.1
10107.5
17000.1
16604.9
18705.4
17032.1
19435
18693.8
21209.8
19373.7
18424.7
14635.7
17584.1
14500.1
20063.3
17299.2
20970.5
17394.4
22699.3
19759.4
23341.1
19906.9
19071.5
14767.2
19614.2
14801.6
12814.9
9004.47
11990.3
7582.27
12312.9
8731.34
11957.2
7499.47
13198.4
9305.9
12021
7613.7
13404.6
9543.73
11934.5
7549.47
12853.3
13206.8
9039.29
8283.57
13018.7
13333
8891.37
8211.87
13015.5
12810.3
8658.65
8115.64
15142.3
17791.1
15972.6
11857.5
8415.12
16536.8
15558.5
17459.7
11977
8117.14
18228.9
16260.1
14496.5
12129.3
7426.34
14065.1
15615.1
8322.08
9198.04
13896.9
15145.3
8234.3
9047.64
12935.5
13724.8
7836.37
8101.9
16444.5
15727.7
14982
14608.5
15659.3
16373.7
12247.6
13347.5
7574.44
7504.29
16656.3
15434.2
15143.5
14064.4
13723.6
13413.9
11588.1
11913.3
6932.78
7723.63
14812.7
12939.8
14869.9
12341.9
16604.6
14279.5
17114.8
14437.7
12988.3
11325.6
13082.2
12131.4
14963.2
12050.6
15001.3
11989.4
17423.1
14922
17528
15036
13058.1
10809.5
13009.4
10770.9
10453.8
9570.62
6668.71
7680.64
10751
10290.9
6831.98
8086.46
10579.9
9295.92
6573.14
7790.35
10702.3
9053.27
6701.97
7635.2
19115.9
19120.9
27048.8
22549.2
18249.5
18417.7
25898.1
21520.3
15962.7
16763
23717.6
19980.3
15385.8
14964.9
14366.8
14291.6
16847.2
17468.5
15906.7
16020.8
21740.7
18318.6
14610.1
14028.3
13663.5
13626.7
14193.8
14694.3
15524.2
15275.9
21382.5
16912.6
5919.48
3768.17
2723.53
2480.48
6189.88
3922.63
2816.54
2500.94
5791.01
3684.23
2670.92
2456.76
6123.81
3873.25
2777.36
2458.51
5553.65
3516.64
2574.81
2368.25
6016.18
3758.66
2722.79
2366.61
6170.03
3756.75
2679.07
2404.85
6080.39
3659.66
2588.2
2360.8
5324.54
3363.5
2503.12
2299.49
4016.1
2737.03
2163.52
2151.42
4972.07
3219.46
2416.74
2187.36
3899.22
2742.49
2144.77
2097.73
5516.96
3429.78
2511.86
2315.28
4050.31
2719.88
2138.71
2159.64
5544.66
3414.12
2463.18
2274.36
3992.76
2683.84
2088.36
2100.65
5350.38
3473.91
2544.37
2391.85
4383.62
3038.03
2308.73
2300.09
5178.65
3385.93
2491.33
2351.03
4264.86
2989.2
2282.41
2288.13
4936.28
3243.32
2417.85
2306.1
4178.53
2927.16
2248.17
2286.82
4429.52
2981.93
2274.04
2282.52
3988.13
2821.47
2187.77
2175.45
3715.07
2718.1
2108.2
2089.54
2931.37
2593.89
1863.17
508.986
653.581
2304.07
1701.92
582.465
2980.31
2594.35
1860.63
527.043
853.703
2311.19
1698.51
584.297
3065.05
2576.72
1838.2
498.911
1131.26
2303.02
1675.19
569.658
3037.71
2523.4
1835.08
526.661
1184.5
2257.53
1652.74
568.063
2753.46
2409.29
1816.74
604.46
609.912
2138.93
1612.68
563.294
2196.85
2157.92
1706.98
554.587
-525.22
1834.47
1514.92
544.132
2395.61
2264.99
1760.9
569.757
-331.094
1964.89
1558.75
550.023
2051.95
2073.83
1642.9
486.99
-703.345
1738.74
1460.46
519.058
2002.79
2019.43
1589.27
458.954
-623.765
1679.93
1415.48
501.033
2418.74
1877.91
1316.43
777.328
256.896
2362.46
1863
1312.15
775.863
256.509
2417.46
1870.45
1311.18
774.475
256.001
2352.19
1851.59
1304.67
771.88
255.272
2433.05
1863.93
1304.99
770.943
254.881
2340.82
1838.55
1295.84
767.171
253.818
2297.64
1813.02
1281.78
760.179
251.711
2239.25
1777.7
1261.8
750.144
248.68
2398.32
1843.71
1293.33
765.035
253.091
2536.6
1855.05
1291.31
762.928
252.363
2470.45
1864.61
1301.62
768.697
254.143
2596.78
1870.7
1298.57
766.372
253.375
2341.62
1819.05
1280.35
758.675
251.189
2501.25
1833.54
1279.67
757.221
250.663
2290.63
1786.83
1261.93
749.406
248.397
2459.07
1805.65
1263.71
749.231
248.274
2526.57
1899.53
1321.48
778.843
257.276
2704.54
1918.95
1325
779.805
257.511
2531.51
1894.85
1317.79
776.787
256.621
2706
1914.82
1322.08
778.218
257.012
2550.87
1888.41
1311.96
773.525
255.585
2713.43
1906.76
1316.53
775.261
256.081
2605.98
1885.73
1306.72
770.423
254.588
2724.59
1895.12
1309.69
771.7
254.951
2664.9
1881.36
1303.14
768.493
253.986
11042.1
14513.5
11107.6
14530.7
11249.3
14549.2
11086.4
14394.1
10389.1
13714
9680.79
10826.9
9691.64
11228.7
9752.32
10798.6
9941.68
10976.9
8462.07
1405.24
294.598
65.2937
11.4763
9111.38
2570.81
617.589
138.773
24.3924
8432.64
1383.19
288.871
63.8995
11.2117
9078.34
2540.79
609.797
136.614
23.8302
8336.87
1360.44
283.261
62.573
10.9725
8986.38
2504.32
600.263
134.33
23.431
8118.13
1307.25
271.031
59.87
10.5051
8774.95
2433.87
583.069
130.532
22.773
7676.21
1208.96
250.442
55.5244
9.76846
8319.8
2310.36
555.389
124.748
21.806
6957.09
1138.49
243.007
54.6627
9.68214
7104.01
2042.66
501.459
114.225
20.1366
7156.99
1151.39
242.921
54.3324
9.59635
7446.81
2139.55
521.368
117.94
20.6941
6894.24
1139.78
244.473
55.1192
9.77085
7008.64
2004.63
492.5
112.503
19.8828
6891.67
1135.08
243.335
54.8898
9.72165
7047.13
2001.97
490.665
112.348
19.8217
32148.5
45785.3
43996.5
30305.4
23725.7
28189.9
22953.1
28087.2
26527.3
41933.4
28096.7
42919.4
295.691
313.544
353.337
417.547
510.438
636.842
310.785
329.052
369.593
434.405
526.298
648.494
284.264
278.62
303.281
299.584
345.788
346.604
414.906
424.421
513.742
534.535
641.806
665.994
802.216
1012.22
1283.42
1641.61
2053.79
2350.03
804.02
994.718
1221.64
1475.51
1717.92
1874.99
791.806
1161.99
1460.68
1670.1
1777.98
839.396
1231.34
1547.29
1768.62
1882.57
945.483
1385.95
1740.35
1988.27
2115.79
1116.42
1634.53
2050.18
2340.34
2489.44
1362.99
1991.59
2493.66
2843.24
3022.72
1696.76
2471.24
3085.92
3512.8
3732.13
832.075
1220.78
1534.24
1753.92
1867.04
880.711
1291.52
1622.42
1854.1
1973.34
988.648
1448.51
1818.12
2076.52
2209.4
1160.91
1698.42
2129.05
2429.51
2583.92
1404.35
2050.01
2564.93
2923.45
3107.7
1726.34
2511.49
3133.9
3566.66
3789.57
761.261
1117.32
1404.73
1606.31
1710.16
746.16
1095.21
1377.03
1574.72
1676.57
812.005
1191.38
1497.33
1711.74
1822.14
802.124
1176.94
1479.28
1691.19
1800.3
925.414
1356.85
1704.16
1947.2
2072.23
927.613
1360.12
1708.33
1952.01
2077.35
1109.57
1624.96
2038.66
2327.51
2475.91
1134.98
1662.09
2085.12
2380.38
2532.03
1372.16
2005.66
2511.84
2864.13
3044.85
1427.51
2086.08
2611.84
2977.38
3164.73
1710.72
2492.9
3113.68
3544.07
3764.65
1775.04
2586.01
3228.68
3673.25
3900.58
2129.09
3083.98
3835.09
4356.55
4626.19
2668.26
3829.69
4732.99
5365.06
5699.26
3342.57
4722.93
5782.17
6544.03
6971.44
4185.65
5759.57
6952.38
7871.74
8460.72
5079.28
6733.02
7979.5
9057.05
9898.46
5693.14
7357.9
8616.71
9803.82
10848.4
2132.49
3086.5
3836.99
4359.41
4630.57
2623.42
3768.25
4660.72
5286.41
5617.22
3194.9
4538.89
5576.28
6316.7
6723.16
3814.36
5339.49
6505.87
7366.62
7870.09
4383.35
6036.96
7293.65
8262.75
8876.07
4743.8
6466.08
7773.01
8813.63
9507.12
298.747
322.817
369.279
440.863
542.023
677.654
313.902
338.497
385.71
457.656
557.056
686.653
287.367
281.844
312.756
309.469
362.205
363.856
439.228
450.301
547.044
569.654
686.383
714.147
851.527
1065.79
1334.03
1679.27
2073.58
2355.56
848.122
1041.26
1265.26
1510.12
1739.32
1882.09
800.014
1174.12
1476.06
1687.81
1796.9
864.368
1268.34
1594.24
1822.74
1940.45
988.469
1449.76
1821.52
2081.99
2216.11
1179.43
1728.41
2170.06
2479.19
2638.32
1448.68
2120.05
2658.74
3035.38
3229.31
1808.16
2639.86
3304.64
3769.26
4009.01
840.466
1233.21
1550.03
1772.13
1886.51
906.178
1329.32
1670.49
1909.6
2032.73
1032.16
1513.23
1900.62
2171.93
2311.63
1223.82
1792.35
2249.25
2568.95
2733.57
1487.88
2175.43
2726.35
3111.56
3310.11
1830.51
2669.22
3338.56
3806.72
4048.81
769.597
1129.63
1420.32
1624.25
1729.32
754.82
1108
1393.21
1593.32
1696.43
837.501
1229.1
1545.15
1766.8
1880.98
828.715
1216.26
1529.1
1748.53
1861.56
969.65
1422.44
1787.51
2043.34
2175.09
974.09
1429.02
1795.86
2052.95
2185.33
1175.27
1722.78
2163.47
2471.97
2630.75
1204.91
1766.27
2218.12
2534.39
2697.15
1462.54
2141.22
2686.1
3067.03
3263.05
1523
2229.74
2797.07
3193.55
3397.5
1832.54
2677.62
3353.67
3825.83
4069.03
1906.99
2786.93
3490.82
3982.01
4234.73
2265.03
3292.88
4109.95
4682.43
4980.17
2818.35
4065.79
5050.25
5747.27
6118.16
3488.67
4961.96
6113.96
6953.5
7426.59
4301.24
5961.76
7246.58
8247.77
8888.58
5147.49
6863.84
8179.28
9322.07
10209.6
5714.71
7402.47
8686.96
9899.34
10963
2253.83
3272.41
4080.99
4648.19
4943.97
2752.93
3970.06
4929.71
5608.59
5969.24
3318.43
4736.01
5844.49
6643.09
7083.08
3914.87
5505.05
6736.87
7653.18
8189.97
4447.54
6146.36
7449.97
8460.31
9099.54
4765.61
6504.13
7828.19
8884.17
9587.6
4933.89
3325.59
1054.35
842.918
952.497
841.889
998.63
4557.91
4420.26
2935.07
3687.66
1888.66
2443.89
1617.83
1777.47
1526.54
4251.95
2493.44
1726.97
1552.27
1893.13
1668.41
1344.96
1303.34
1264
1127.88
1455.98
1329.25
4523.24
2848.94
3208.12
2156.35
1835.93
2466.87
1380.42
1136.08
1503.54
10157.3
10495.1
10975.8
12666.9
21489.3
7453.16
8739.13
9784.96
11233.7
13290.6
2793.75
4040.86
5027.1
5722.43
6089.43
2245.11
3269.63
4085.36
4655.57
4950.69
2536.69
3693.01
4611.64
5251.63
5581.71
2244.57
3272.94
4092.4
4663.86
4958.38
2654.92
3856.29
4808.77
5474.53
5820.15
10157
11516.1
12431.2
14174.1
22756.7
10067.8
11657.3
12783.9
14350.3
16958.5
7061.86
9053.09
10552.9
11965.8
13289.6
8908.39
10933.4
12157.1
13420.7
14511.7
4860.77
6765.66
8208.43
9261.12
9870.25
6098.23
8159.71
9678.98
10866.6
11647
4226.8
5996.34
7355.66
8316.61
8837.34
4615.91
6495.57
7924.28
8939.11
9497.07
4007.22
5719.22
7040.75
7966.28
8457.87
9431.06
10713.6
11638.1
13379.5
21841
6116.06
8038.82
9513.38
10856.4
12064.7
4474.35
6284.02
7674.1
8693.21
9286.21
4045.17
5725.95
7030.55
7982.84
8528.27
4831.59
6666.53
8079.66
9187.26
9926.38
4308.06
6030.26
7366.73
8382.17
9005.76
3520.9
5014.82
6185.01
7037.42
7517.79
3432.65
4924.98
6094.94
6927.8
7377.7
3345.94
4830.17
5994.26
6806.32
7230.14
2993.29
4336.79
5396.87
6136.7
6521.32
3825.18
5467.84
6743.98
7645.85
8131.21
3503.38
5030.07
6224.68
7069.34
7521.56
9630.65
10374.5
11017.6
12723.5
21360.5
6625.19
8152.09
9357.2
10750.9
12422.9
7644.44
9364.42
10548.2
12186.2
15174.6
5344.2
7116.62
8487.43
9710.13
10709.5
4675.36
6434.86
7798.8
8895.93
9641.13
6023.16
7881.06
9324.07
10699.9
11991.4
3616.34
5154.53
6357.8
7229.86
7717.61
3009.43
4350.19
5407.64
6150.58
6541.24
3920.55
5554.82
6827.49
7760.42
8295.95
10429.4
9800.02
8709.17
7207.35
5203.93
2029.1
18198.2
18548.8
21094.3
21737.6
17890.5
19013.5
20212.2
19632.9
14897.8
18216.9
15556.4
18781.4
17864.7
16129.6
24821.8
17534.7
17751.4
19956
20368.4
16976.3
18081.3
19368.4
18978
14853.4
21997.9
15430.8
21924.4
18051.7
19568
26641.1
16807.2
16900.8
18521.9
18700.7
16320.9
17808.1
18251.2
18337.2
17059.1
19533.2
17814.5
19568.5
19625
21540.4
24060.8
16140.1
16252
17261
17288.5
15973.1
17694.5
17153.8
17504.3
16052.4
17149.6
16784.3
16747.4
18023.9
19472.1
20903.5
15433.3
15577.7
16426.8
16374.1
15749.5
17628
16461
16992.8
15259.8
14239.3
16019.7
13708.5
16656.2
16536.1
17380.3
15140.2
15325.2
15885.1
15802
15431.2
17001.7
16027.7
16480.3
14621.6
12314.2
15198
12097.4
15565.8
14638.6
15819.6
21085.5
20303
22077.4
23156.5
19628.4
19665.1
20623.1
19751
18688.7
13858.6
18675.8
13955.5
16608
15129.2
18144
19966.7
19408.1
20466.5
21167.7
19021.7
19216.1
19513
18785.4
17430.1
13488.7
17441.4
13600.8
15319.1
13678.3
16890.3
18522.7
18203
18556.8
18886
17999.7
18205.1
18097.4
17675
16682.2
13375.7
16506.3
13127.6
14831.3
12585.5
16766.5
17214.9
17042.9
17148.4
17284.6
16921.5
17069.5
17010.4
16685
15949.5
14043.1
15864.8
13730.3
14429.8
12816
17362.4
16609.4
16502.8
16414.6
16468.4
16237.5
16378
16407.1
16216.4
15930.5
15373.1
15878.9
15238.9
14701.6
13494.4
18210
16178.4
16077.9
16015.3
16042.9
15853.3
16169.4
15980.1
15918.7
15962.4
16213.7
15971.1
16135.7
14917.6
14141.3
19081.3
11196.4
6352.58
18468.4
12104.3
20160.8
14886.9
31672.6
39171.4
41622
50836.1
26921.9
23333.1
17085.3
13545.5
8309.41
5527.93
19174.7
19682.2
16482.6
19405.5
25902.5
23205.3
29811.5
24201.6
7894.28
5716.32
4368.29
3254.87
9640.87
7878.76
5845.46
4726.4
17430
18159.2
17869.2
15194.8
14008
10881.7
10922.6
12388.5
17621
17514.9
36845.9
38071.9
26188.7
26946.2
14849.9
12526.4
16232.8
11586.5
7551.82
7736.05
6012.14
8245.03
3112.18
3708.08
8407.32
11302.5
5003.36
5784.65
9361.43
15414.5
6472.91
10482.1
2476.12
6251.97
2058.17
4674.85
17412.4
21486.5
17884.3
21345.5
21328.4
21581.9
21633.8
21249.1
15168.5
20518.6
15662.6
20299.4
17577.6
21168.7
17549.8
21102.8
21760.3
20942
21658.4
20724.2
13989.3
20587.8
13491.3
20652.2
16923
19691
21380.6
29580.2
17904.8
22612.7
21171
31966.7
16056.9
17392.4
21481.4
28521.1
15891.3
16304.2
21720.7
28346
4796.37
6236.8
12215.2
21160.6
6105.93
6890.45
16084.1
24498.7
7683.97
7744.55
20553
27668.1
23935.3
25900.5
20061.6
19200.3
27335.5
26149.4
24548.7
20512.4
17665.2
31048.9
23787.9
23356.8
20654.6
20276.3
35780.9
1877.21
2259.95
3971.53
8915.88
2742.44
3073.97
5686.44
10244.7
4132.8
3490.02
7811.15
11939.4
26060.9
26053.6
23384.5
23292.8
19818
18423.5
14919.7
13322.4
10368.1
14180.7
23644.1
23085.6
23692.3
23538.4
20436.5
19324.3
16747.8
15097.9
11095.8
14438.9
23357.7
26386.8
23254.3
26978.1
22700.6
23637.1
22115.4
23726.9
21086.8
21488.3
20926.1
20888.3
23054.7
27069.1
22931.5
27023.7
21443.3
23978.7
21247.5
23901.5
21167.8
21441.3
21152.1
21420.7
17638.1
16782
11333.8
12548.8
17500.2
16317.2
11145.5
12526.4
17898.3
16749.6
11590.5
12635.1
17973.5
16586.6
11955.9
12659.5
1573.87
1097.03
776.772
940.929
670.08
628.061
2212.97
1381.68
1069.59
1889.84
1554.09
1364.95
2621.57
2277.06
2324.14
3333.8
2791.65
2539.65
25329.6
23319.3
21840.5
23168.8
21864.9
20732.3
16546.7
15643.1
15155.3
11111.2
9871.06
9358.59
5065.06
3848.45
3310.19
22808.1
21553.4
20367.1
23233.6
21610.9
20257.7
17084.5
15030.5
13844.2
11066.4
9102.34
8308.23
5398.52
3841.1
3132.5
26366.6
25929.8
28622.4
25797.4
29474.8
25837.6
35466.8
27112.9
20313.8
20860.7
19987.6
18722.7
22967.4
21735.7
22479.6
19252.4
22246.2
22180.9
20583.1
22139.2
27584.7
24619.3
27105.3
27482.6
29366.5
30330.3
22537
23369
20242.5
19637.3
24606.4
25209.5
16129.7
8458.05
14992
9398.76
16338.2
8519.47
14910.8
9312.79
16163
8571.18
14911
9723.18
14475.2
10187.2
14636
10101.5
20847.6
17946.2
20629.9
17862.6
22971.6
20847.4
23101.9
20578.5
20222.8
14947.3
21205.2
14802.1
21022.4
17742.1
21256.2
17528.8
23628.4
20369.8
23612.1
20092.1
19961.5
14962.8
19872.2
14862.1
13221.9
8592.82
11787.8
7211.98
12366.2
7668.51
11357
6706.95
13516
9154.43
11958.5
7442.06
13516.3
9507.26
11918.3
7493
2437.13
1209.66
4291.21
2006.19
2629.65
1549.4
4601.09
2532.75
3279.74
2428.26
5141.24
3511.13
13095.5
20233.2
9378.86
8955.45
6039.27
19904.5
13926.9
8121.5
8144.12
4885.45
20595.4
16300.2
12986
10035.1
5818.55
587.676
436.511
888.214
538.123
941.392
639.392
1534.58
1153.2
1752.11
1423.82
2512.78
1990.47
20378.6
20058.7
13931.7
13667.5
9074.6
9458.95
7609.98
7282.07
4108.51
3346.2
19028.4
17604.9
14880.9
13386.6
11651.2
10691.5
8793.95
8273.46
5125.13
5366.67
15158.8
12613.4
15199.5
12241.2
18053.2
15253.7
17945.1
14942.5
12834.2
10767.8
12482.5
10864.1
15169.1
12008
15065.2
11977.8
17840.1
15169.9
17652.7
15106.6
13045.7
10566.7
13019.3
10709.2
9956.91
8770.44
6186.89
6944.82
9613.34
8618.5
5873.13
6601.13
10382.6
8938
6350.57
7394.33
10645.7
8947.74
6625.45
7509.73
2078.14
1849.79
1538.67
9423.39
4967.52
4046.63
2024.74
2031.43
1814.16
10155.9
5877.89
4983.86
2757.38
3139.1
3236.65
11052
7287.2
6509.32
19335.3
18462.7
17749.5
13520.9
13426.5
13317
10085.5
10213.9
10321
8918.46
8804.32
8665.23
12414.2
8935.5
8115.47
16422.1
15517.2
14848.5
12545.2
12004.6
11664.2
10721.3
10227.3
9896.95
10645.8
9640.97
9009.29
15036.8
10062.5
9101.49
4435.12
2765.51
2102.83
2023.82
5086.48
3059.78
2239.92
2072.11
4445.71
2752.32
2104.62
2041.2
5202.78
3127.47
2281.19
2088.22
4405.58
2698.05
2084.29
2009.67
5301.47
3158.72
2309.65
2057.18
5752.13
3379.52
2395.43
2181.07
5940.05
3528.4
2492.67
2282.89
4725.24
2893.06
2165.14
2024.25
3620.99
2405.98
1929.86
1945.68
4030.65
2550.96
1982.18
1856.09
3252.01
2230.41
1836.96
1856.6
5185.52
3149.04
2298.46
2137.69
3837.41
2533.85
1990.74
2017.84
5441.73
3319.88
2389.4
2211.87
3925.53
2623.18
2037.46
2051.78
3142.76
2270.98
1868.26
1906.36
1669.63
1663.42
1578.06
1783.68
3134.32
2246.28
1858.26
1899.25
1769.27
1689.46
1587.18
1795.01
3199.52
2228.21
1852.96
1898.4
2101.28
1785.88
1624.05
1842.75
3101.61
2131.88
1793.1
1927.85
2378.22
1846.69
1664.65
1820.64
2752.78
2023.48
1727.96
1823.07
91.6676
1159.96
1188.99
353.62
-1786.24
868.465
1016.35
386.483
352.167
1244.64
1218.84
375.539
-1441.81
966.063
1044.83
396.025
838.766
1393.06
1271.28
375.394
-861.613
1126.32
1089.32
402.367
1422.41
1564.8
1335.89
410.721
-266.445
1299.08
1148.07
421.815
1781.16
1714.66
1414.06
488.363
-170.515
1420.95
1201.72
438.67
1910.43
1867.89
1456.35
460.253
-639.437
1528.01
1295.9
467.363
1859.98
1799.98
1425.49
460.817
-657.069
1477.61
1249.71
450.599
1911.88
1915.85
1489.42
425.744
-733.621
1572.86
1331.38
471.451
1963.03
1969.08
1538.33
438.051
-625.621
1628.05
1373.54
485.244
2047.61
1648.78
1185.45
710.885
236.643
2023.42
1645.26
1186.19
711.723
236.938
2073.89
1661.9
1192.04
714.035
237.576
2054.14
1662.08
1195.08
716.07
238.244
2119
1679.73
1200.27
717.869
238.705
2089.22
1681.35
1205.14
720.995
239.729
2124.21
1703.8
1218.52
727.918
241.861
2175.39
1736.44
1237.78
737.868
244.926
2166.85
1701.43
1212.2
723.865
240.537
2315.24
1728.23
1219.98
726.846
241.368
2175.9
1695.75
1206.39
720.513
239.463
2311.11
1718.46
1213.57
723.455
240.305
2188.56
1721.3
1224.24
730.131
242.478
2357.81
1747.48
1230.94
732.502
243.122
2237.48
1752.89
1242.34
739.413
245.338
2409.67
1775.6
1246.62
740.528
245.606
2105.33
1656.96
1185.43
710.192
236.377
2215.72
1666.04
1185.71
709.801
236.226
2129.89
1667.33
1190.34
712.482
237.048
2235.41
1673.85
1189.45
711.561
236.745
2176.05
1683.76
1197.75
715.925
238.052
2275.19
1687.24
1195.84
714.585
237.627
2253.38
1702.83
1205.27
719.302
239.028
2322.82
1701.72
1203.17
718.097
238.642
2327.46
1712.71
1209.55
721.318
239.625
8802.3
13475.4
9335.89
13861.8
10062.1
14313.9
10605.3
14652.7
10279.1
14206.9
9674.52
10872.3
9632.52
11299
9760.64
10831.2
9946.99
10989.4
7785.83
1322.3
281.093
62.7896
11.0838
8642.88
2453.32
593.574
134.17
23.6755
7906.24
1325.81
280.021
62.296
10.9639
8770.09
2456.38
591.904
133.117
23.284
8040.45
1327.92
277.883
61.5203
10.8012
8894.29
2461.74
589.587
132.04
23.0537
8041.85
1298.79
269.166
59.4081
10.42
8865.25
2428.89
579.246
129.443
22.5698
7703.87
1212.85
250.726
55.4845
9.75105
8469.27
2323.68
555.75
124.506
21.7366
6974.46
1141.94
243.736
54.8045
9.7032
7132.93
2050.76
503.179
114.538
20.1803
7175.72
1155.8
243.753
54.4632
9.61178
7497.43
2151.16
523.195