/*--------------------------------*- C++ -*----------------------------------*\
  =========                 |
  \\      /  F ield         | OpenFOAM: The Open Source CFD Toolbox
   \\    /   O peration     | Website:  https://openfoam.org
    \\  /    A nd           | Version:  11
     \\/     M anipulation  |
\*---------------------------------------------------------------------------*/
FoamFile
{
    format      ascii;
    class       volScalarField;
    location    "2.9";
    object      gradTz;
}
// * * * * * * * * * * * * * * * * * * * * * * * * * * * * * * * * * * * * * //

dimensions      [0 -1 0 1 0 0 0];

internalField   nonuniform List<scalar> 
5712
(
6996.46
23003.1
5545.24
23596.2
4171.4
24439.7
6606.16
37776.2
8125.76
51962.8
8053.63
37788.2
7756.7
31326
8060.31
27967.3
4874.96
2992.82
13033.3
7702.59
4787.77
2577.62
14314.9
7103.26
5304.79
3810.72
17028.1
11896.3
4008.79
2851.12
16755.2
12093
9396.09
3965.33
8088.91
3589.07
3695.51
8729.22
32741.1
8889.14
11702.2
3978.06
42280.8
11503.1
11005.7
3832.45
23311.6
7244.26
11948.6
4178.48
20205.2
6435.4
5449.98
2701.92
8265.4
3200.56
5891.56
3190.52
8072.85
3075.16
7544.87
4286.33
6954.34
2998.25
10393.7
3717.64
3582.2
1244.97
11736.8
8074.65
7293.74
5303.24
13328.3
10951.6
7288.98
6311.75
6836.45
4562.5
9541.25
6298.35
4827.54
3533.64
2477.03
2023.95
4715.87
4076.07
2470.36
2376.96
4588.28
2975.61
2370.56
1504.68
6056.5
3276.29
4489.4
5472.65
8212.19
5833.81
6442.46
9309.12
4035.54
1900.76
2660.22
3149.16
2017.89
831.439
1153.41
1168.05
7037.48
12653.8
4799.59
14161.2
8300.15
12416.7
5926.27
14881.1
9496.81
11289.9
7684.61
14613.2
11645.1
14173.2
8511.05
8134.9
8960.79
14133.5
12767.6
12281
12458.1
18109.1
11476.8
8610.6
7288.46
8131.53
12916.4
14580.6
12947.3
16947.7
16184.8
13349.7
12312.1
16775.7
15878.2
11571.4
11222.7
15785.7
15341.2
10275.2
8000.14
9287.51
7983.84
9996.95
8773.19
10613.5
10042
14629.3
14809.5
9619.45
8235.51
8956.54
8404.14
9082.51
9402.83
10150.3
11177.4
13278.5
15106.9
7873.1
6166.68
5437.58
6965.14
10845.3
13300.4
7547.99
11998.5
4533.36
6017.27
6712.56
5507.94
1279.9
4633.96
683.304
1669.84
3865.26
8095.41
1441.63
2815.35
549.951
3878.62
328.242
1358.39
4417.93
4496.65
5016.79
3066.73
6963.17
5523.99
8191.02
5572.38
971.665
2457.38
2477.23
1374.77
1397.49
1829.15
1995.54
1501.03
10234.4
6181.81
1928.46
11616.7
6622.86
2160.4
9809.23
6116.3
2048.81
11458.7
6636.03
2158.48
9030.08
5609.47
1834.57
11213.4
6684.92
2227.06
5135.54
2712.43
711.074
6403.05
4189.46
1459.43
7520.99
5184.06
1785.44
8620.91
5543.31
1833.23
11131
6889.28
2410.33
6152.63
3388.14
1051.09
5934.83
4246.71
1593.85
6943.57
5125.18
1870.41
8700.22
6082.91
2162.81
11243.4
6951.69
2453.45
292.383
1988.07
2788.53
4056.29
2110.85
2444.5
5317.69
5071.12
597.289
1041.53
637.964
1085.44
482.912
1414.17
865.983
1857.81
3202.35
1573.18
4068.32
2353.88
2179.36
3788.56
3369.34
973.065
5928.7
1482.93
-1810.94
781.474
1823.47
1379.71
1272.2
1208.07
9943.84
4722.83
2725.52
1745.12
10104.2
4918.3
3410.16
2194.5
9991.85
5306.07
4962.68
3580.42
3530.05
2598
1797.6
1741.35
12529.1
11165.3
5912.26
6154.83
13273.1
12478.8
6551.03
6625.39
5357.95
5538.76
10934.9
9195.52
3550.7
3717.44
2023.46
2278.41
4055.19
4036.22
2262.82
2412.86
3164.28
3408.35
1816.65
2193.79
4871.53
3542.62
4907.85
3647.41
7567.95
4708.11
7286.05
5052.23
2963.76
2558.23
3112
2363.42
1698.81
1619.99
1982.06
1383.58
11962.4
8732.87
6287.65
6655.6
11918.2
8892.83
6333.02
6624.56
12329.3
9128.58
6425.18
6417.84
13753.7
14598
12756
8757.25
5262.7
13844.3
13100.2
12473.6
10604
7302.72
12976.5
11943.1
9755.82
7744.77
5148.14
7783.43
7202.38
7489.13
8863.85
7917.55
6988.87
7513.95
8693.5
8082.6
6768.97
7511.38
8480.45
10461.5
7374.51
10023.8
7049.18
8166.39
6735.18
7917.56
6985.83
6926.04
8327.64
8679.26
7534.72
7883.47
6955.32
6962.88
6440.68
6429.55
6575.56
5505.16
7944.36
7042.82
4790.57
4683.36
2792
8992.17
6936.76
6267.63
5018.43
3948
2426.3
5736.76
4334.61
4744.94
2249.92
1753.79
1013.65
4938.7
3561.73
1742.69
1440.91
4194.15
1922.97
1662.7
890.395
3463.31
3317.65
3240.28
4870.58
4831.29
4746.04
4168.55
6296.95
3425.02
2332.25
2294.93
3258.26
1073.18
548.675
313.372
661.426
5057.52
2105.37
617.749
5945.96
1524.71
403.541
5053.3
2250.18
688.143
5893.6
1576.01
436.613
4605.36
2176.64
560.374
5727.77
1587.69
369.708
4510.79
2240.2
474.151
4287.73
2045.37
467.403
4428.73
2116.55
566.707
4605.1
2154.63
448.227
5655.79
1541.28
229.518
5782.48
2863.46
741.149
5441.31
2696.01
727.514
5171.44
2553.73
739.437
5143.83
2180.93
528.396
6100.58
1421.99
343.537
1891.35
687.577
134.646
-225.24
784.372
301.942
81.3387
-46.0012
2006.89
755.864
193.555
-139.774
994.32
420.533
199.144
93.2444
2162.35
844.361
292.295
-10.7527
1706.14
814.511
333.379
85.0251
1299.71
755.896
303.875
11.098
1232.81
835.501
515.974
321.001
1798.98
812.074
264.332
-185.457
1554.26
689.493
308.205
-193.404
2134.2
836.623
270.05
-144.262
1941.13
762.468
303.852
-324.661
1445.17
761.373
323.422
-50.7554
1195.67
614.395
337.187
10.276
1073.44
678.442
421.358
269.941
825.684
524.606
361.755
222.705
2431.55
831.826
129.65
-447.232
2444.88
771.415
173.64
-616.871
2430.38
845.111
153.476
-424.216
2369.13
751.174
182.892
-596.814
2386.65
850.414
232.45
-304.845
2209.42
711.938
227.488
-490.648
2089.39
786.319
323.712
-48.1763
2422.02
798.473
324.767
-574.766
1881.32
707.037
328.418
-132.851
1966.75
546.954
156.81
-421.783
789.899
199.363
45.5603
-89.0877
2021.33
582.648
178.342
-401.318
818.847
215.061
58.9748
-73.407
2042.45
622.519
224.185
-352.398
826.403
232.585
77.4189
-53.5083
1836.6
587.61
258.795
-278.852
797.408
239.981
105.823
-18.5372
1676.68
585.143
288.617
-162.419
706.902
252.484
145.337
29.9796
1175.95
478.376
238.799
-42.1459
661.353
332.825
209.511
115.907
1358.41
482.991
231.505
-113.418
666.964
287.189
177.29
73.1551
946.893
466.43
268.95
50.1769
596.131
354.482
236.046
157.412
668.704
427.217
302.088
195.828
500.791
357.16
261.037
203.8
-19.3138
10.0496
10.1808
7.40978
5.84474
-2.49509
6.62599
5.73192
4.10018
3.23646
12.7398
27.6813
20.595
14.1571
11.0051
32.3298
26.7101
17.7774
11.9078
9.1954
48.3791
49.2725
33.8129
22.9192
17.7742
131.787
90.2904
57.5613
38.2182
29.4438
159.268
106.936
68.0705
45.2787
34.9765
230.453
141.735
87.805
57.9378
44.7027
85.413
72.046
47.7889
32.0939
24.7385
90.4149
67.7814
44.0217
29.495
22.7447
58.8009
57.5633
38.9083
26.3606
20.4143
105.226
69.814
43.9474
29.2646
22.5086
111.08
86.1922
56.5045
37.8832
29.274
120.434
81.1796
51.6576
34.4227
26.5553
183.346
114.225
70.9086
46.812
36.0977
153.08
94.2845
58.4337
38.5656
29.6881
-36.7035
5.45831
7.57972
5.69301
4.52526
-20.176
1.80034
2.98031
2.28363
1.83976
-15.7238
16.5045
14.0265
9.87213
7.75268
-12.6822
5.71719
5.23094
3.72118
2.95412
10.6468
29.3052
21.3261
14.6537
11.4803
15.4436
18.7023
12.5097
8.34664
6.51912
69.0005
56.4879
36.8865
24.8778
19.3694
45.6722
35.6013
22.7758
15.2537
11.8841
125.751
73.7723
45.1152
29.7679
22.9094
1498.87
3432.23
1499.91
3388.82
1622.57
3352.14
1936.76
3490
2032.49
3615.53
797.964
1271.85
1331.54
2158.92
413.829
612.043
139.547
197.061
7874.82
1876.11
428.729
95.4607
23.629
2140.52
575.44
152.757
34.6404
7.49827
7804.78
1843.75
420.828
92.897
23.1611
2177.1
641.803
157.84
36.5987
9.05852
7493.46
1757.01
399.352
88.0134
21.963
2113.12
621.121
152.374
35.1575
8.73298
6914.02
1605.89
363.729
80.0633
19.9784
2058.19
592.441
143.433
32.7969
8.10106
5839.91
1348.84
305.555
67.3285
16.8172
1954.59
547.209
130.988
29.7553
7.32567
2804.24
677.155
155.951
34.5959
8.6501
954.685
271.571
64.4385
14.3733
3.52788
4151.84
988.441
225.924
49.8853
12.4565
1405.84
394.783
94.5301
21.4582
5.31761
1652.21
402.229
93.0546
20.7403
5.19421
531.744
157.511
37.0996
8.26477
2.04674
569.95
137.888
31.9549
7.14206
1.78843
211.413
56.3712
12.1791
3.44695
0.652422
159.045
515.3
4447.27
-802.6
736.989
789.849
2301.8
2946.03
1844.79
3470.31
2904.05
4483.47
3496.65
4341.08
1818.52
2451.44
1946.36
2308.34
1012.99
1053.22
2280.53
1679.97
499.019
-482.576
-782.07
-939.237
-298.101
12714.7
2977.01
4137.11
2646.08
-206.447
-74.3633
2922.1
-1454.18
-825.545
-1122.42
-572.425
6983.72
3665.43
1225.46
1025.34
3639.47
1995.44
630.185
1372.88
-1523.47
-893.367
681.455
535.079
8607.3
4286.74
5264.03
2829.73
4076.38
4390.02
1522.84
-923.496
901.774
1631.2
1356.71
1191.67
1100.9
875.493
1338.34
1087.71
862.145
617.507
270.558
440.613
369.388
284.121
183.23
64.4012
-430.862
-359.339
-268.004
-164.598
-55.4164
-698.954
-583.928
-436.627
-268.846
-90.6138
-840.651
-703.63
-527.239
-325.247
-109.746
-259.291
-207.367
-145.703
-83.6219
-26.6858
9335.5
8252.65
7220.9
6827.55
6549.42
2713.29
2451.74
2352.32
2016.19
1091.57
3191.72
2581.9
2225.37
1790.96
961.595
2065.83
1708.5
1526.59
1206.99
516.448
-33.8786
24.5244
147.986
167.655
85.2514
32.7641
125.564
177.911
163.387
71.1113
2503.34
2120.94
1700.47
1206.92
504.454
-886.825
-435.344
-172.053
-31.0467
7.26152
-658.14
-469.379
-284.874
-136.312
-35.4943
-795.879
-497.286
-259.157
-102.949
-21.8489
-517.679
-429.887
-313.915
-186.745
-60.7532
5243.5
4831.76
4270.4
4060.66
3927.12
2837.49
2265.88
1917.83
1492.16
747.704
1150.1
1059.05
916.366
670.353
269.29
911.441
790.822
647.042
451.894
174.345
3049.68
2479.8
1911.67
1288.67
503.474
1778.88
1523.54
1211.19
813.807
297.634
552.739
467.95
370.119
248.827
91.9388
1216.8
1025.55
793.416
514.975
182.514
-1322.51
-1068.2
-772.264
-462.461
-153.081
-785.643
-640.797
-464.3
-276.453
-90.7916
616.533
540.395
442.503
305.799
114.731
486.734
429.218
352.956
243.608
90.4996
5604.47
4152.42
3653.68
3463.63
3139.13
3291.59
2583.46
2024.37
1470.13
675.874
3904.01
3238.58
2666.75
2120.4
1060.12
2273.06
1870.74
1476.57
1053.52
467.826
3486.22
2871.66
2214.52
1470.32
549.978
3340.03
2491.94
2059.11
1581.48
685.892
1337.05
1120.05
866.654
566.36
202.978
-819.351
-676.283
-497.1
-300.31
-99.7097
802.704
695.683
567.684
394.005
148.931
-26694.9
-43782
-22125.6
-35450.9
-23763.5
-49897.8
-28448.8
-63346.2
-16895.6
-11540.2
-19043.8
-11835.9
-15612.6
-10025.5
-19355.4
-10161.1
-22032.3
-16558.9
-32142.6
-23108.9
-18920.1
-15040.3
-26877.8
-20154.3
-15188.2
-15491.1
-12459
-11950.2
-14635.9
-13815.6
-37219.2
-10265.6
-14137.2
-5269.79
-45579.4
-12622.7
-12646.8
-4681.68
-27642.7
-8706.55
-14472.7
-5537.74
-24545.8
-7636.61
-11333.4
-4553.09
-14470.3
-5237.62
-10751.4
-4720.75
-12581.8
-4547.61
-11151.9
-5397.39
-10051.9
-3982.76
-12916.6
-4554.36
-4535.45
-1590.91
-9649.75
-6380.81
-8328.44
-5060.02
-8546.17
-6863.14
-7326.28
-5223.28
-8453.27
-4785.15
-9885.27
-6126.83
-5704.21
-3392.48
-3072.29
-1881.65
-4926.69
-3393.99
-2555.52
-1815.19
-5789.84
-3132.91
-3205.59
-1602.19
-7439.19
-3771.11
-4788.16
-5586.99
-9427.58
-6324.99
-6731.37
-9418.96
-5051.36
-2262.46
-2870.04
-3231.6
-2737.05
-1100.76
-1301.92
-1230.17
-11107
-13481
-6248.86
-15226.4
-11550.8
-12867.7
-7176.27
-15572.8
-11681.2
-11730.1
-8554.74
-14830.5
-8025.39
-6498.37
-8751.18
-9687.59
-9655.67
-8921.79
-10245.7
-11836.2
-12682.3
-18000.8
-6107.74
-6254.97
-6781.09
-8200.06
-12852.1
-12782
-8912.34
-16200
-12449.7
-11850.4
-8775.52
-15962
-12398.2
-10495.3
-8194.61
-14898.6
-12270.9
-7332.72
-5844.12
-7495.4
-5979.47
-8335.31
-6708.58
-9066.7
-7661.05
-13582.7
-12333.9
-6895.9
-5937.17
-6860.29
-5897.66
-7500.75
-6943.19
-8990.35
-8850.56
-12564.5
-12873.4
-6294.26
-5025.71
-4634.08
-6110.63
-7950.96
-11063
-6014.13
-10214
-4226.14
-5615.52
-6034.61
-4933.21
-777.358
-4026.43
-222.64
-1186.18
-2879.89
-7027.42
-624.025
-1954.03
-360.314
-3583.48
-128.113
-1111.59
-4336.94
-4330.06
-4993.19
-2991.56
-6713.34
-5212.43
-8077.05
-5295.14
-928.517
-2338.81
-2455.04
-1324.07
-1334.99
-1720.35
-1961.69
-1444.92
-5401.83
-1858.41
-7301.19
-2492.55
-5522.43
-1938.83
-7474.47
-2685.05
-5478.89
-1909.09
-7921.71
-3060.65
-3429.45
-956.632
-4232.01
-1630.13
-4743.8
-1846.64
-5685.45
-2158.12
-8358.8
-3336.4
-4382.29
-1318.59
-3848.92
-1925.15
-4614.87
-2222.28
-6237.8
-2745.69
-8648.48
-3274.24
-5942.69
-5592.35
-4419.13
-4376.66
-9898.96
-7583.84
-8003.64
-6651.77
-4087.38
-3617.61
-1662.42
-1220.96
-3846.32
-3780.83
-1519.87
-1607.44
-2843.81
-4549.28
-3417.42
-4914.16
-3753.27
-2385.22
-3071.01
-423.76
-6510.12
-1659.58
2597.84
513.138
-853.544
-203.576
309.892
762.418
-2538.26
-1875.1
-935.254
-592.219
-2678.59
-1983.39
-1365.06
-668.824
-2978.19
-2368
-1784.57
-901.955
-1090.01
-26.7744
728.103
1153.91
-4989.3
-5395.81
-3818.91
-3606.53
-6643.11
-6677.02
-5490.64
-4629.48
-2542.71
-2884.97
-3858.97
-4472.58
-2281.49
-2000.19
-928.428
-861.353
-3504.48
-2758.97
-1755.53
-1380.72
-1290.77
-1480.15
-186.997
-546.357
-1738.6
-1308.34
-2544.24
-1954.56
-2773.95
-2395.27
-3948.76
-3207.46
-605.76
-392.998
-1224.85
-778.56
417.988
547.625
-292.49
150.282
-3759.88
-4815.18
-3315.08
-4996.91
-3713.58
-4778.56
-3394.14
-4990.4
-3883.16
-4393.13
-3575.41
-4740.51
-2787.88
-4584.33
-2463.73
-2279.51
-2609.78
-6929.11
-4989.74
-4726.41
-5072.19
-5471.27
-5550
-4736.97
-4118.27
-3970.39
-3313.75
-5802.13
-5904.54
-7786.34
-12028.3
-5465.17
-5294.4
-7467.29
-11452.7
-4975.49
-4820.09
-6890.62
-10540.7
-6792.52
-5229.58
-6219.81
-4762.13
-5566.63
-4479.33
-5853.16
-5463.47
-6368.39
-9754.61
-5509.49
-5218.18
-4762.42
-4815.47
-4412.19
-4713.99
-4714.93
-5687.23
-4562.12
-8629.95
-3900.01
-2810.53
-2655.21
-968.836
-5504.42
-4845.1
-4258.8
-3130.04
-2121
-818.645
-3271.09
-2675.2
-3191.29
-972.337
-426.211
127.393
-3543.97
-2312.76
-609.504
-345.706
-2675.49
-757.071
-281.878
180.692
-2044.62
-2201.7
-2331.62
-4398.4
-3179.91
-3686.44
-3345.44
-6147.54
-2099.63
-1413.77
-1264.39
-2655.02
227.494
367.419
789.292
67.3211
-4236.67
-1232.72
-8113.3
-847.306
-3948.26
-1321.66
-7880.13
-878.469
-3003.88
-797.627
-7169.36
-705.752
-2873.79
-636.286
-2705.75
-625.731
-3023.22
-921.913
-3271.33
-619.734
-6747.75
-890.343
-4030.83
-780.362
-3801.35
-613.977
-3970.69
-792.621
-4536
-691.398
-7083.11
-861.796
-827.752
-165.588
196.223
483.101
-277.399
-40.3736
77.8841
153.966
-815.446
-127.697
217.145
457.794
-188.227
40.0907
88.1987
98.0569
-834.25
-83.6239
224.022
410.499
-7.78453
267.345
418.441
468.177
586.763
521.976
592.193
626.591
1064.85
774.947
606.806
455.569
-363.727
139.47
428.37
724.873
-302.045
195.659
348.599
731.319
-903.548
-67.2515
287.362
607.911
-699.166
69.3049
315.552
895.081
139.277
342.896
460.103
619.27
56.4551
304.811
351.772
531.094
618.44
530.209
453.048
367.979
432.056
415.56
352.919
339.023
-1322.33
-288.763
232.969
785.553
-1658.36
-345.136
102.872
984.495
-1268.82
-248.761
253.414
800.339
-1594.32
-318.469
104.759
973.322
-1180.57
-188.019
212.391
697.548
-1446.33
-267.771
74.4573
888.322
-788.786
-32.492
200.69
514.416
-1498.09
-226.455
85.1864
1105.74
-738.114
28.9622
228.493
699.211
-1550.12
-266.093
27.9702
696.199
-676.665
-101.966
30.448
177.59
-1448.31
-227.533
48.1402
698.892
-644.062
-89.2708
34.8691
175.701
-1241.96
-152.46
60.0063
679.821
-548.662
-57.7909
49.8116
183.723
-1019.24
-89.9828
46.6186
611.427
-449.644
-25.7316
52.6696
177.327
-747.369
11.1076
97.5877
525.502
-234.776
47.444
71.5692
173.933
-335.457
148.189
245.653
485.496
102.653
225.991
206.753
243.367
-614.496
41.7023
163.336
500.013
-27.6924
144.773
138.643
208.978
1.73905
261.517
294.271
439.213
232.247
289.565
253.849
257.261
335.572
355.232
302.365
317.661
361.898
334.215
266.52
236.909
109.634
32.5216
13.8195
7.97349
5.94059
46.5832
15.6163
7.06806
4.14829
3.09079
129.145
47.6868
23.8312
14.6944
11.1724
74.9894
34.6857
19.2215
12.264
9.41252
159.581
67.0434
36.0093
22.6698
17.3198
190.49
100.889
59.1225
38.3041
29.5271
211.249
116.472
69.0038
44.7466
34.4248
237.191
143.08
87.65
57.4978
44.3351
190.838
88.5859
49.8329
31.8767
24.5576
162.21
78.3056
44.6697
28.621
22.0504
172.2
72.793
39.7214
25.0625
19.1908
143.308
73.1683
42.7796
27.5369
21.2575
205.428
101.714
58.3354
37.4823
28.8309
166.521
88.5665
52.0634
33.675
25.9817
197.432
116.324
70.8698
46.4179
35.7799
164.467
96.1654
58.4169
38.2134
29.4685
118.568
28.7051
11.1065
6.19935
4.57093
54.9401
11.5317
4.19992
2.27365
1.64406
128.413
37.5572
17.0749
10.2066
7.6591
58.5184
14.7569
6.39819
3.76719
2.79018
133.152
45.7234
23.0241
14.1951
10.7056
66.9274
24.9983
13.4962
8.5992
6.51721
149.339
64.4949
35.8791
22.6723
17.2406
88.7472
38.7803
21.9879
13.9989
10.6364
127.522
72.2274
43.468
28.2421
21.778
-1725.87
-3241.48
-1767.56
-3241.76
-1912.67
-3256.88
-2089.72
-3334.42
-2016.39
-3346.25
-783.989
-1231.32
-1310.77
-2053.04
-390.407
-581.232
-108.279
-164.495
-8244.23
-1946.51
-441.997
-97.9316
-24.1358
-2216.36
-596.395
-157.754
-35.6047
-7.6679
-8105.3
-1901.82
-432.019
-95.006
-23.605
-2259.37
-665.451
-162.872
-37.5899
-9.26467
-7671.43
-1794.09
-406.971
-89.5239
-22.2945
-2186.25
-641.05
-156.61
-35.997
-8.91094
-6969.66
-1621.55
-367.568
-80.9107
-20.1792
-2100.6
-605.225
-146.332
-33.3968
-8.23341
-5825.28
-1350.47
-306.596
-67.6359
-16.9027
-1958.13
-552.135
-132.448
-30.0974
-7.40795
-2790.67
-674.4
-155.486
-34.5291
-8.64143
-943.437
-269.877
-64.2726
-14.3721
-3.53438
-4131.05
-985.527
-225.672
-49.8965
-12.4717
-1393.62
-394.686
-94.8631
-21.5719
-5.35138
-1643.37
-400.294
-92.671
-20.6721
-5.18144
-521.254
-155.257
-36.6911
-8.1997
-2.03625
-563.12
-136.425
-31.6487
-7.08258
-1.77604
-200.58
-53.8919
-11.6636
-3.35001
-0.633178
220.912
-1001.82
-5218.75
902.696
-6284.74
-2753.73
-6081.26
-2782.88
-11017.6
-5864.91
-12356.2
-6543.13
-137.102
-545.372
-856.522
-1009.23
-907.54
-376.903
-224.622
-844.289
-1281.01
-1413.36
-1139.12
-393.213
-116.582
-125.057
-437.942
-441.27
-626.554
-619.467
-604.703
-570.88
-542.176
-515.623
-427.409
-377.943
844.429
2202.55
3568.27
2526.72
2325.56
1121.57
803.61
2312.81
3736.5
4322.01
3603.73
1642.8
-123.658
-104.552
-79.2448
-49.3905
-16.7724
-492.591
-417.23
-316.842
-197.787
-67.2243
-773.586
-655.192
-497.529
-310.58
-105.564
-911.229
-771.493
-585.636
-365.482
-124.207
-819.223
-693.315
-525.974
-328.036
-111.433
-341.719
-290.017
-219.887
-136.632
-46.2355
-202.497
-171.116
-129.635
-80.773
-27.4263
-762.184
-645.203
-489.717
-305.608
-103.858
-1156.17
-978.495
-742.589
-463.405
-157.491
-1274.82
-1078.24
-817.895
-510.285
-173.417
-1026.72
-867.737
-657.835
-410.305
-139.433
-355.342
-300.904
-228.181
-142.132
-48.2252
-105.22
-89.0365
-67.5406
-42.1219
-14.3083
-112.935
-95.6308
-72.5943
-45.2995
-15.3928
-395.687
-335.281
-254.702
-159.035
-54.0585
-398.752
-337.932
-256.755
-160.336
-54.5045
-566.056
-479.597
-364.301
-227.454
-77.3129
-559.623
-474.109
-360.106
-224.823
-76.4174
-546.272
-462.765
-351.429
-219.355
-74.5447
-515.472
-436.441
-331.288
-206.727
-70.2465
-489.592
-414.424
-314.327
-195.924
-66.5173
-464.992
-393.075
-297.859
-185.599
-63.0144
-385.974
-326.263
-246.609
-153.001
-51.7544
-340.438
-287.215
-217.025
-134.821
-45.6782
751.904
629.843
476.988
299.572
102.697
1953.19
1631.75
1235.69
778.45
268.255
3129.65
2599.81
1974.22
1258.75
442.078
2201.32
1824.94
1390.24
891.417
314.368
2057.69
1710.67
1296.52
815.561
264.865
1023.05
868.012
666.551
419.774
132.661
716.318
600.033
453.608
284.003
97.0833
2056.71
1720.2
1300.49
815.711
279.617
3303.61
2753.21
2082.53
1312.56
453.106
3797.12
3152.59
2386.43
1512
525.947
3166.05
2628.97
1992.27
1263.68
437.875
1458.63
1223.59
934.942
595.518
205.961
303.025
708.335
1013.33
1156.95
1042.53
513.728
453.863
1066
1485.06
1585.51
1265.82
476.615
247.722
235.902
563.778
547.809
740.399
715.013
698.403
643.507
624.545
527.793
564.357
420.568
-688.525
-1965.25
-3156.78
-1974.87
-1648.62
-379.395
-734.228
-2199.7
-3486.2
-3872.12
-2957.06
-872.336
274.165
232.712
177.11
110.756
37.6808
640.519
543.287
413.177
258.235
87.8302
916.083
776.803
590.615
369.065
125.514
1045.75
886.589
673.973
421.106
143.205
942.587
799.315
607.688
379.674
129.104
467.059
398.022
303.382
189.51
64.3526
410.552
348.395
265.101
165.765
56.3938
963.574
816.966
621.103
388.113
131.994
1341.78
1137.1
864.149
539.864
183.589
1431.78
1212.74
921.295
575.483
195.703
1142.57
967.372
734.716
458.93
156.083
431.685
366.629
278.947
174.262
59.2301
224.14
190.259
144.802
90.5515
30.8061
213.438
181.162
137.867
86.208
29.327
509.873
432.547
329.004
205.642
69.9423
495.435
420.297
319.68
199.81
67.9582
669.485
567.836
431.818
269.862
91.7764
646.481
548.268
416.895
260.517
88.5956
631.577
535.73
407.41
254.596
86.5786
581.701
493.204
374.932
234.249
79.654
565.103
479.558
364.737
227.881
77.4724
477.007
404.324
307.257
191.901
65.239
511.799
435.087
331.065
206.659
70.1716
380.363
322.53
245.046
152.93
51.951
-609.314
-507.191
-382.385
-239.818
-82.2731
-1736.54
-1445.79
-1092.65
-688.422
-237.594
-2751.02
-2271.6
-1719.39
-1097.36
-387.074
-1678.49
-1357.59
-1015.41
-646.276
-228.227
-1409.76
-1127.48
-824.548
-502.572
-152.337
-310.852
-225.04
-144.357
-72.1281
-7.69377
-653.243
-546.196
-412.424
-258.169
-88.2866
-1954.3
-1633.21
-1234.33
-774.455
-265.638
-3074.67
-2556.26
-1930.66
-1216.75
-420.416
-3380.51
-2789.02
-2101.68
-1329.64
-462.997
-2561.9
-2096.91
-1571.32
-991.188
-342.823
-736.001
-584.438
-426.924
-265.178
-90.3929
-1385.24
-876.841
-199.149
737.298
1040.64
1324.35
638.055
-10612.6
-1600.36
-3044.11
-1461.61
302.025
-3941.48
892.911
2532.01
1221.74
-5740.67
-2584.95
-372.714
-490.141
-3299.96
-1200.57
-203.088
-973.296
2234.16
1427.28
-465.258
-105.985
-7580.33
-3525.3
-4147.44
-1992.97
-3473.11
-3205.72
-1014.85
1451.62
-312.022
-667
-447.581
-407.774
-538.514
-643.653
-538.141
-345.266
-241.658
-190.106
-109.06
-163.924
-128.929
-96.7435
-63.9257
-23.448
666.957
565.623
429.706
268.142
91.1098
938.926
793.915
601.493
374.56
127.086
1195
1010.7
766.121
477.384
162.05
578.305
489.806
369.751
228.299
76.7639
-7678.19
-6967.99
-6406.09
-6648.82
-7113.27
-1028.86
-715.513
-888.739
-1075.53
-779.012
-2140.02
-1594.73
-1424.61
-1292.3
-821.551
-938.268
-627.841
-600.213
-558.722
-258.468
276.245
223.213
145.571
65.7129
11.3577
-3299.23
-2720.5
-2116.15
-1459.61
-596.351
807.523
675.466
497.802
296.925
95.419
2206.13
1807.22
1340.44
828.308
281.165
1097.71
921.488
691.775
426.644
143.344
-4044.3
-3820.3
-3535.67
-3710.93
-4033.46
-1771.95
-1278.54
-1118.23
-983.437
-588.452
-288.797
-249.691
-246.751
-228.683
-116.839
-394.091
-320.539
-267.229
-205.203
-89.6947
-2760.23
-2246.67
-1745.92
-1196.39
-478.754
-1012.19
-828.226
-649.958
-447.769
-170.291
-151.88
-112.943
-88.6704
-67.4437
-29.3808
-842.689
-695.57
-533.245
-348.3
-125.282
1996.92
1672
1256.52
778.321
263.157
1286.59
1084.53
816.822
504.613
169.918
-389.763
-319.31
-254.104
-178.866
-70.2372
-75.1644
-57.1941
-53.1088
-48.281
-22.8115
-4633.63
-3271.59
-2943.82
-3026.67
-3062.8
-2562.77
-1923.34
-1488.37
-1116.35
-551.237
-2766.89
-2202.36
-1812.79
-1557.75
-843.375
-1471.53
-1144.13
-888.366
-668.304
-335.547
-2921.41
-2372.52
-1821.46
-1220
-465.093
-2213.58
-1455.88
-1229.9
-1053.91
-509.471
-864.459
-705.737
-541.689
-359.016
-131.983
1310.5
1107.08
836.112
518.066
174.893
-238.259
-186.816
-158.806
-128.519
-57.1818
-0.453411
43.3153
105.867
143.194
112.203
9.45745
-18848.7
-16635.7
-15914.1
-18134.3
-13810.2
-10931
-12487.7
-9486.79
-16278.6
-14227.3
-14997.1
-14069.2
-13156.8
-11199.5
-13813.1
-15490.9
-13841.4
-12777.7
-14410.5
-11632.3
-9855.61
-10447
-8387.21
-14578.7
-12907.2
-13428.6
-12194
-11623.6
-10867.8
-11177.6
-12147.2
-11129.9
-10117.2
-11066.9
-9657.16
-8290.73
-8733.01
-7515
-12186.4
-11015.1
-11342.4
-10295.4
-9862.46
-9127.88
-9343.58
-8467.54
-7965.18
-7146.58
-7576.21
-7145.89
-6408.53
-6497.36
-5960.08
-8748.99
-8814.16
-8253.7
-8298.28
-7355
-6645.57
-7359.61
-5409.68
-5169.85
-4606.39
-4805.16
-4785.69
-4333.24
-4295.67
-3977.24
-5787.84
-5765.31
-5530.51
-5384.65
-5031.81
-4544.78
-4898.38
-1946.74
-1877.35
-1668.4
-1727.22
-1768.44
-1654.43
-1576
-1471.74
-2198.4
-2184.64
-2054.92
-1948.49
-1891.97
-1737.01
-1852.42
-7294.1
-7203.09
-10780.5
-11611.8
-6894.11
-6140.26
-9474.8
-7722.39
-5843.18
-4509.34
-5806.55
-4466.23
-5852.52
-5587.23
-4525.64
-7294.7
-6934.39
-9602.34
-10465.6
-6454.61
-5864.4
-8365.4
-7229.67
-5861.16
-4081.12
-5762.9
-4279.31
-5289.43
-5080.15
-4625.49
-6706.62
-6407.76
-8164.48
-8746.52
-6039.9
-5641.75
-7322.18
-6505.16
-4938.13
-4517.07
-4925.8
-4719.82
-4623.62
-4610.54
-4841.66
-5476.15
-5286.09
-6149.73
-6450.97
-5033.48
-4724.85
-5707.69
-5228.37
-4815.04
-4160.18
-4735.53
-4392.75
-4446.06
-4391.83
-4419.67
-3817.93
-3707.04
-4085.67
-4236.23
-3451.96
-3205.9
-3857.72
-3553.42
-3431.38
-3246.01
-3351.45
-3373.85
-3142.84
-3066.96
-3174.98
-1429.06
-1388.54
-1497.37
-1545.36
-1286.31
-1184.83
-1421.64
-1312.42
-1131.34
-1197.95
-1205.46
-1285.35
-1170.12
-1128.62
-1164.37
6964.68
22527.3
5514.58
23594
4155.53
24441.4
6602.05
37784.2
8120.99
51974.1
8037.58
37784.8
7723.59
31309.1
8037.35
27359.6
4867.98
2991.17
13034
7702.7
4786.29
2577.44
14318.1
7104.4
5271.56
3785
16686.4
11672.7
3988.72
2842.75
16769.1
12109.8
9401.91
3958.84
8089.33
3586.78
3690.89
8736.68
32749.9
8890.37
11704.2
3978.11
42290.7
11505.2
11007.9
3833.1
23323.6
7246.46
11952
4179.03
20221
6438.25
5395.93
2675.61
8118.79
3145.63
5892.22
3190.97
8086.49
3080.3
7543.94
4286.47
6958.74
3000.36
10402.3
3720.87
3584.26
1245.77
11735.8
8073.97
7293.56
5303.04
13326.7
10950.4
7289.12
6311.59
6836.56
4562.46
9540.51
6298.05
4827.9
3533.66
2476.69
2023.77
4716.5
4076.2
2470.42
2376.96
4589.04
2975.67
2370.34
1504.49
6057.28
3276.8
4489.56
5472.92
8212.04
5834.08
6442.52
9309.49
4036.81
1901.31
2660.38
3149.34
2018.02
831.531
1153.3
1168.06
6993.93
12648
4769.08
14151.4
8301.98
12412.6
5929.22
14878.1
9496.95
11288.8
7685.3
14612.5
11644.2
14171.2
8510.61
8135.28
8961.47
14131.6
12766.5
12280.1
12457.6
18109.1
11475.2
8609.73
7288.06
8131.52
12916.7
14601.7
12982.8
16951.9
16166.7
13343
12307
16768
15873.4
11568.8
11219.3
15784.3
15339.3
10273.8
7999.14
9286.46
7982.8
9995.88
8771.88
10612
10040.2
14628.5
14808.4
9618.34
8234.51
8955.73
8403.17
9081.83
9401.85
10149.8
11176.5
13278.5
15106.3
7872.61
6166.43
5437.38
6965.09
10844.3
13299.7
7547.6
11998.1
4533.31
6017.35
6712.32
5507.84
1279.78
4633.94
683.22
1669.8
3865.14
8095.24
1441.64
2815.32
549.858
3878.68
328.134
1358.36
4418.01
4496.75
5016.98
3066.81
6963.16
5524.01
8191.25
5572.43
971.655
2457.43
2477.32
1374.79
1397.47
1829.17
1995.58
1501.05
10259.7
6194.42
1935.98
11622.2
6631.45
2163.34
9805.68
6115.19
2048.68
11455.5
6634.37
2158.23
9027.64
5608.23
1834.26
11211.6
6683.62
2226.69
5134.78
2711.93
710.908
6402.13
4188.82
1459.22
7519.74
5183.22
1785.16
8619.26
5542.27
1832.91
11129.8
6888.29
2409.98
6151.84
3387.61
1050.89
5933.91
4246.02
1593.59
6942.54
5124.36
1870.09
8699.17
6082.02
2162.47
11242.5
6950.82
2453.09
297.689
1990.12
2802.51
4060.66
2113.18
2445.58
5325.49
5073.65
580.574
1028.83
618.979
1068.39
487.181
1413.88
870.332
1857.06
3214.29
1578.34
4072.87
2355.18
2183.06
3796.38
3373.96
976.9
5931.49
1484.91
-1799.21
789.664
1829.08
1384.79
1281.72
1215.68
9955.2
4718.23
2714.13
1736.67
10095.7
4918.32
3408.15
2194.43
9987.09
5305.19
4964.1
3580.13
3534
2598.53
1802.45
1743.13
12525.6
11163.4
5913.23
6154.92
13270.6
12477.1
6551.59
6625.39
5358.99
5538.79
10931.4
9193.84
3552.83
3718.03
2025.19
2279
4056.49
4036.6
2263.66
2413.17
3166.7
3408.93
1818.91
2194.48
4871.96
3542.66
4907.78
3647.35
7565.66
4707.48
7284.85
5051.69
2965.54
2558.81
3112.44
2363.68
1700.91
1621.01
1982.69
1384.04
11991.8
8738.79
6289.39
6656.3
11910.2
8892.21
6331.84
6624.54
12321.8
9125.23
6423.56
6416.69
13748.9
14594.5
12751
8753.83
5261.7
13841.5
13096.4
12469.4
10600.5
7301.36
12974.2
11940.4
9753.43
7743.04
5147.42
7784.07
7208.24
7485.05
8857.76
7915.42
6988.48
7511.44
8692.44
8080.44
6767.43
7510.57
8479.84
10459.6
7373.36
10021.4
7047.79
8164.02
6733.7
7915.45
6984.38
6925.02
8326.75
8677.72
7533.53
7881.58
6953.96
6961.07
6439.34
6428.1
6574.39
5504.38
7943.46
7041.27
4789.6
4682.87
2791.55
8990.79
6935.84
6267.15
5017.97
3947.59
2425.93
5735.45
4333.75
4744.94
2249.79
1754.05
1013.75
4938.65
3561.58
1742.83
1440.96
4194.15
1922.89
1663.01
890.526
3463
3317.29
3240.08
4870.2
4830.37
4745.31
4168.06
6296.32
3425.03
2332.15
2294.97
3258.12
1073.49
548.817
313.662
661.547
5063.99
2111.33
620.633
5952.51
1534.06
405.911
5051.77
2250.34
688.161
5891.17
1574.36
436.65
4604.27
2176.28
560.349
5726.94
1587.03
369.567
4510.04
2239.77
474.011
4286.92
2044.95
467.272
4427.84
2116.13
566.587
4604.14
2154.18
448.093
5655.1
1540.91
229.402
5781.66
2862.98
740.984
5440.42
2695.54
727.361
5170.56
2553.28
739.296
5143.02
2180.51
528.259
6099.93
1421.77
343.466
1883.88
683.24
131.995
-226.271
776.669
297.992
79.422
-46.8347
2007.25
755.952
193.522
-139.983
994.477
420.585
199.081
93.0951
2162.3
844.346
292.262
-10.873
1706.04
814.499
333.367
84.9297
1299.82
755.964
303.934
11.1094
1233.4
835.776
516.121
321.062
1799.02
812.115
264.364
-185.465
1554.31
689.548
308.247
-193.363
2134.05
836.598
270.051
-144.299
1941.02
762.458
303.864
-324.637
1445.4
761.499
323.502
-50.7175
1195.85
614.509
337.262
10.3288
1073.89
678.67
421.487
270.006
825.966
524.775
361.862
222.774
2430.63
830.758
128.01
-448.458
2447.55
772.051
172.973
-618.73
2429.92
844.882
153.416
-424.337
2368.62
750.978
182.942
-596.716
2386.27
850.284
232.432
-304.856
2208.96
711.78
227.492
-490.565
2089.09
786.209
323.672
-48.2317
2421.63
798.356
324.753
-574.707
1881.14
706.985
328.396
-132.901
1972.52
549.086
157.096
-424.485
793.667
200.573
45.7007
-90.1422
2018.57
581.792
178.181
-400.886
817.674
214.73
58.8868
-73.2156
2041.84
622.285
224.176
-352.273
826.079
232.469
77.4035
-53.4264
1836.23
587.475
258.771
-278.792
797.224
239.909
105.805
-18.5112
1676.45
585.068
288.596
-162.391
706.794
252.441
145.317
29.9809
1175.96
478.413
238.83
-42.1101
661.377
332.849
209.525
115.918
1358.31
482.978
231.51
-113.391
666.918
287.173
177.28
73.1528
947.007
466.519
269.012
50.2299
596.232
354.554
236.092
157.445
668.903
427.352
302.177
195.896
500.955
357.276
261.113
203.856
-20.6072
9.1955
9.63582
7.03249
5.53958
-3.35998
6.03098
5.32981
3.80684
2.99175
12.7273
27.6773
20.589
14.1508
10.9948
32.3364
26.7222
17.7883
11.9183
9.19492
48.3392
49.2443
33.7861
22.8942
17.7461
131.742
90.2549
57.53
38.1913
29.4187
159.27
106.935
68.0684
45.2779
34.9821
230.482
141.75