/*--------------------------------*- C++ -*----------------------------------*\
  =========                 |
  \\      /  F ield         | OpenFOAM: The Open Source CFD Toolbox
   \\    /   O peration     | Website:  https://openfoam.org
    \\  /    A nd           | Version:  11
     \\/     M anipulation  |
\*---------------------------------------------------------------------------*/
FoamFile
{
    format      ascii;
    class       volScalarField;
    location    "2.9";
    object      gradTx;
}
// * * * * * * * * * * * * * * * * * * * * * * * * * * * * * * * * * * * * * //

dimensions      [0 -1 0 1 0 0 0];

internalField   nonuniform List<scalar> 
5712
(
-6407.73
-8188.64
-15249.3
-22239.6
-22685.3
-39164.3
-17481.4
-44512.3
-14245.9
-31287.1
-21289.6
-32367.1
-19120.4
-25036.1
-8401.78
-9596.76
-14249.6
-16318.3
-18459.5
-18316.2
-14578.9
-18055.1
-21481.3
-19316.2
-5189.63
-3876.16
-6459.47
-4323.26
-12016.2
-9557.99
-20555.3
-14833
-15955.1
-16557.8
-17661.2
-16749.6
-6114.17
-4831.03
-37853.3
-50690.5
-24453.7
-30031.2
-51016.8
-66190.4
-26418.8
-30238.3
-28007.8
-39585.1
-24419.8
-32397.2
-14243
-23010.5
-2707.06
-910.302
-2856.12
-1027.35
-8180.87
-3293.75
-11256.1
-4130.02
-7970.76
-3064.06
-8543.42
-2734.57
-14592.7
-4636.21
-18844.7
-6348.09
-23277
-11520.8
-21304.7
-12643.6
-21937.6
-14191.8
-19283.2
-14559
-16670.3
-9896.34
-16647.3
-8445.04
-21971.8
-14103
-22017.2
-14246.6
-20351.1
-15434.6
-20594.9
-15518.8
-18014.2
-11462.8
-18662.9
-11756
-16983.5
-7318.11
-7813.15
-9461.68
-17056.5
-7985.18
-6783.43
-9538.79
-17995.9
-7299.14
-8882.46
-9563.23
-18894.8
-7483.54
-9676.42
-10010.6
-3509.31
-3825.97
-1172.81
-2262.56
-10310
-10887.7
-3948.6
-6921.32
-13202.4
-14714.8
-6269.84
-10622.9
-12210.3
-1217.92
-13293.5
-16224.1
-8714.25
-884
-7511.97
-11856.3
-19020.9
-12912.8
-9598.68
-11565.6
-10006.2
-8540.33
-13346.3
-3401.99
-2828.08
-1934.92
-1924.11
-9624.5
-8196.37
-5730.37
-5463.96
-12062.2
-10346.4
-7489.66
-6741.7
-5886.31
-7455.74
-12081.6
-12479.5
-13748.8
-12531.5
-15477.3
-13550.1
-10273.8
-8639.37
-8943.48
-9537.27
-11757.9
-9470.34
-10653.8
-7933.94
-9159.98
-6463.32
-10536.3
-6969.72
-10119.4
-4955.24
-8650.51
-9485.36
-12432.5
-16347.9
-13665.7
-19966.2
-6847.36
-7713.4
-8935.32
-3124.12
-7695.09
-14906.4
-7291.91
-15941.4
-13522.5
-24617.4
-13754.5
-26079.5
-5771.95
-12735.4
-5228.77
-13533.1
-7934.57
-6111.9
-10961.5
-4437.46
-8240.61
-1913.41
-9598.96
-1001.4
-7597.99
-9055.42
-11473
-5349.52
-6265.46
-10641.7
-10134.1
-6990.56
-2282.45
-2033.24
-1852.21
-1633.12
-1513.78
-1373.38
-6794.26
-5686.56
-5002.33
-4316.1
-3552.05
-3133.5
-8434.28
-7399.69
-6891.42
-5214.97
-4355.54
-4159.65
-6646.53
-5996.49
-5891.93
-10977.5
-8553.84
-7293.66
-10209.9
-7744.37
-6385.34
-10744.3
-8668.35
-7623.11
-6494.01
-4395.49
-3487.01
-15805.5
-13936.4
-12241.9
-10040.9
-8537.64
-7234.6
-8784.79
-7004.05
-5731.55
-7268.48
-5393.62
-4263.99
-7300.46
-4153.98
-2422.24
-10197.3
-13862.2
-8033.87
-10428.5
-10874.8
-16028.5
-9685.28
-14159.1
-70.772
-756.927
474.637
-116.414
-2978.69
-3392.72
-1239.79
-682.875
-733.566
-2461.28
-9326.36
-13656.1
-6636.88
-3592.2
-9705.41
-9626.09
-14842.9
-16336
561.074
3985.81
-7486.83
-7060.33
-6994.57
-5398.79
-1043.7
-564.602
-659.623
-258.49
-2058.14
-291.443
300.834
809.858
-9215.15
-2498.32
-6188.4
-1680.8
-8857.37
-2735.95
-10706.3
-3494.51
-8748.65
-11861.7
-8099.88
-11590.4
-13866.3
-14749
-13244
-13994.7
-5712.39
-9550.55
-6576.97
-9472.4
-8583.89
-11182.7
-9460.67
-11315.3
-13793.4
-13762.6
-14444.2
-13837.8
-5759.78
-9263.25
-6258.36
-9452.58
-125.256
-1633.67
-7724.73
-5147.37
444.238
-1216.42
-7159.36
-4571.97
-560.174
-1864.14
-7911.06
-5592.48
-1011.53
-2131.86
-7977.58
-5811.3
639.982
746.944
-201.443
-64.9303
2784.76
2842.26
115.354
248.532
408.789
1818.72
-1910.09
-1299.76
10189.3
9412.64
5479.6
4089.84
227.96
10355.7
10779.8
4274.34
6264.41
583.915
-10070.5
-8037.1
-7334.07
-7061.75
-4586.36
793.584
765.615
-15.3136
-146.793
2512.02
2575.4
-63.5658
-363.243
2507.6
3204.57
-962.965
-1391.39
5123.88
2406.44
8220.11
5258.93
3613.03
2805.39
4026.41
3589.53
-799.352
-1880.93
-3730.07
-2364.16
-1071.87
1032.95
-1166.24
683.252
-2048.23
-664.012
-2648.12
-3071.78
-5329.5
-4918.13
-10066.5
-6136.86
-8086.33
-8213.54
-12273.7
-9994.66
-8167.36
-4944.42
-4179.74
-4199.44
-11841.8
-5316.46
-13021.9
-5954.86
-13682.7
-10202.3
-14601.6
-10920.5
-9850.11
-4083.07
-11020.3
-4707.68
-6792.5
-5601.56
-5655.18
-8404.59
-4520.57
-5170.23
-4884.1
-7797.93
-7780.12
-5586.57
-6361.23
-9625.45
-9337.55
-6071.54
-7780.1
-9950.46
828.609
918.488
1048.5
-14.3439
316.554
364.443
3047.68
3338.34
3374.78
145.002
912.506
935.24
3821.64
4411.43
4585.53
-822.215
870.594
1222.74
1352.57
1180.2
882.451
4010.63
4175.08
3933.96
3280.4
3818.58
3798.45
4056.02
4515.09
4464.48
-1714.46
355.573
534.971
-3414.59
-1909.2
-966.643
1116.79
2388.12
3067.5
1015.32
2683.63
3414.77
359.181
2204.98
2744.24
-2823.32
535.101
947.135
18.5777
40.9489
59.8642
92.4625
274.718
163.792
140.955
142.796
-19.3607
78.888
200.326
325.852
440.74
301.853
344.549
388.948
-284.413
24.0735
282.312
574.719
136.686
244.588
336.307
398.053
23.1966
149.011
169.993
172.737
-239.577
-7.76809
134.23
237.228
-1065.94
-221.905
125.025
369.555
-1663.9
-389.502
25.7416
621.304
-764.816
-100.258
208.101
525.438
-1378.1
-298.816
7.58007
547.38
-1124.19
-261.992
146.619
454.544
-1858.12
-461.23
24.0408
728.336
-1246.8
-344.874
129.14
535.274
-1997.14
-526.724
0.188014
761.75
-3.15198
22.6166
50.9113
114.497
27.9614
32.0261
32.7654
105.458
43.8402
79.7512
154.401
307.145
145.532
110.892
99.3982
284.673
-487.414
-64.1404
171.95
526.733
-252.271
20.3048
133.579
502.982
-148.079
117.063
252.996
524.907
-74.5258
93.5887
117.556
507.329
-1202.95
-232.636
48.8547
707.673
82.1428
46.8388
36.9223
78.9181
170.313
70.1238
38.275
36.6961
160.034
110.4
84.6723
205.209
431.51
186.035
98.024
95.1778
63.9057
120.074
118.865
338.44
534.119
260.304
147.782
150.314
-166.159
105.237
149.236
469.018
391.78
279.079
176.301
191.796
-663.182
1.31557
92.4349
456.615
63.7621
238.445
167.149
199.055
-1397.69
-145.976
82.6615
530.543
-470.254
56.4199
110.521
188.513
-1102.47
-53.592
95.5287
496.103
-310.963
136.9
144.025
202.715
-1669.88
-261.263
42.1205
574.274
-617.413
-24.2232
72.9282
176.067
-1873.54
-377.628
-15.0016
566.74
-756.095
-114.478
23.1541
151.789
41.6904
19.3915
10.6007
6.61982
5.01095
55.3935
29.9842
17.4653
11.1702
8.50733
99.4263
45.1654
24.6349
15.4661
11.7925
125.818
67.2714
39.2047
25.1878
19.2407
131.643
56.5465
30.4652
19.1076
14.6054
169.647
89.294
52.1397
33.6703
25.8043
89.4337
45.8715
26.661
17.2456
13.2237
62.5431
26.6267
14.2201
8.95542
6.80351
133.371
57.994
31.7492
20.102
15.3039
63.341
23.6534
12.2295
7.59046
5.7401
140.783
67.686
38.7073
24.8627
19.0347
59.7979
23.553
12.5395
7.83913
5.92021
101.979
37.6957
19.1824
11.874
8.99098
59.8533
21.0877
10.6896
6.62788
5.01993
87.2132
23.7131
9.7511
5.53738
4.05028
48.0431
11.1455
4.18169
2.28252
1.6402
34.5954
14.5988
7.70833
4.72549
3.55112
25.0287
11.606
6.39868
3.97394
2.9961
84.561
36.7577
19.8835
12.3504
9.35502
64.7011
30.6674
17.1876
10.7639
8.13998
118.291
45.2364
23.4997
14.4005
10.8789
88.1612
42.4469
24.0312
15.0997
11.4949
107.873
52.1601
30.0139
19.2149
14.7337
60.4201
32.4744
18.9735
12.0624
9.26736
56.2858
28.731
16.8803
10.9096
8.36394
-359.894
-470.111
-826.63
-1156.5
-902.073
-1458.81
-420.925
-1217.45
206.556
-329.096
-773.648
-1239
59.0025
-12.0373
-1135.95
-1770.45
-1409.45
-2001.85
-577.52
-133.339
-29.9121
-6.58152
-1.64393
-206.519
-88.7196
-12.7186
-3.3116
-1.40741
-1774.69
-408.037
-91.851
-20.1106
-5.02963
-497.496
-131.087
-31.3686
-6.55655
-1.74093
-2989.76
-688.949
-155.48
-34.1477
-8.52072
-783.352
-220.304
-52.7268
-12.0907
-3.01023
-4029.5
-931.386
-211.015
-46.4753
-11.6083
-908.958
-276.242
-68.28
-15.8495
-3.9416
-5061.27
-1181.55
-269.508
-59.6448
-14.9568
-998.033
-333.732
-85.0186
-20.0131
-5.03719
-6057.62
-1458.38
-337.249
-75.2507
-18.9483
-1504.02
-457.928
-112.591
-25.74
-6.41423
-5615.82
-1346.55
-309.995
-68.8872
-17.2936
-1187.16
-390.962
-98.8207
-23.0103
-5.73838
-6267.55
-1511.93
-350.357
-78.3015
-19.746
-1692.6
-500.05
-121.263
-27.355
-6.80141
-6543.89
-1565.82
-363.418
-81.1923
-20.4642
-1750.73
-519.434
-127.154
-26.6506
-7.01408
-521.933
-6745.77
-6159.66
-2231.46
1583.06
2715.31
7588.66
11101.6
1658.93
8127.88
-1575.26
2543.37
2442.31
4812
9049.84
12813.5
13718.5
17211.2
5596.96
7248.96
-19671.6
-14282
-4932.28
-3923.35
-2829.42
-4059.51
-3736.66
-12198.5
-11871.5
-10071.9
-11062.9
-9242.88
-6596.17
-8519.37
-5738.8
-4858.06
-5939.83
-4078.72
-19720.2
-10393.6
-3766.72
-6392.46
-8558.25
-6014.15
-6621.82
-4947.04
-3049.63
-4319.86
-4544.11
-4902.1
-19371.7
-12789.8
-12197.2
-8855.24
-8860.47
-9251.36
-4092.28
-5422.53
-6777.65
-14249
-12591.5
-10897
-10465.7
-9405.47
-9356.16
-6498.99
-5187.43
-4133.33
-2210.03
-4365.55
-3632.09
-2732.56
-1709.17
-586.257
-3509.08
-2943.27
-2219.32
-1381.61
-469.808
-2516.15
-2095.06
-1567.18
-968.887
-328.05
-3633.87
-3047.51
-2294.02
-1423.91
-482.827
-3321.92
-2768.11
-2075.59
-1287.75
-437.391
-7951.58
-6225.14
-5047.21
-4893.79
-5524.6
-6567.25
-4929.69
-3624.41
-3114.9
-2234.77
-6308.56
-3807.65
-2700.07
-1951.29
-973.745
-5716.14
-3904.8
-2656.45
-1995.1
-1207.85
-4324.19
-2720.18
-1721.06
-1227.6
-615.396
-5235.34
-3926.41
-2729.81
-1645.19
-570.646
-5801.19
-3724.84
-2455.95
-1493.9
-570.159
-3763.96
-2236.67
-1339.74
-729.01
-248.619
-4011.56
-3105.62
-2196.15
-1320.48
-447.461
-4748.58
-3551.83
-2429.35
-1420.99
-473.679
-3402.47
-2653.65
-1879.56
-1123.9
-376.662
-13214
-10276.2
-8561.36
-7943.25
-7920.53
-7702.21
-5634.43
-4198.15
-2924.39
-1358.01
-3143.53
-2469.86
-1779.58
-1092.96
-379.093
-5433.34
-4363.01
-3217.6
-2019.59
-714.124
-7050.09
-5579.34
-4155.88
-2715.05
-1044.83
-5139.06
-4164.88
-3111.96
-1982.38
-709.716
-5752.62
-4721.66
-3542.61
-2240.82
-786.99
-4316.47
-3541.92
-2639.26
-1646.62
-567.253
-2633.88
-2126.91
-1550.63
-944.1
-318.296
-3809.41
-3146.15
-2340.2
-1444.27
-489.659
-3874.25
-3096.74
-2249.19
-1375.39
-468.733
-4255.67
-3469.32
-2566.08
-1589.96
-545.246
-13671.3
-11564
-9943.95
-9218.76
-8422.77
-8956.05
-6496.3
-5125.2
-3927.21
-2075.5
-9093.23
-7308.87
-5700.73
-4351.17
-2187.14
-7012.4
-5375.55
-4116.09
-2865.32
-1197.15
-7431.71
-5991.5
-4528.45
-2981.37
-1137.54
-7266.88
-5524.22
-4202.29
-2913.12
-1203.2
-3525.11
-2864.4
-2128.61
-1337.32
-468.313
-4788.58
-3967.49
-2967.18
-1843.42
-628.413
-5852.95
-4771.91
-3559.91
-2243.25
-785.731
-5389.98
-10953.8
-11454.8
-31279.8
-11322.3
-41953.4
-6161.94
-14920.5
-11337.7
-8773.77
-18764.6
-15672.3
-11350.1
-10727.4
-21100.1
-16764.1
-3962.33
-2939.08
-7647.42
-5245.33
-8884.94
-6689.9
-23770.5
-17536.1
-14657.6
-11156.3
-15058.3
-8969.3
-1166.83
-3613.67
-39039.4
-51167.9
-23637.2
-29886.9
-51691.5
-66458.4
-25519
-30020.6
-29050.5
-40118.5
-23682.8
-32339.3
-15659.2
-23677.4
-1884.94
-496.128
-3303.74
-1126.19
-6411.67
-2854.71
-12988.7
-4684.63
-2830.91
-1599.5
-7071.19
-2219.44
-14624.5
-4589.11
-19018.9
-6397.3
-16081.7
-8320.78
-18473.1
-11002.5
-14736.1
-10543.8
-16475.7
-12811
-14689.4
-8599.98
-11645.2
-5997.59
-20875.8
-13361.1
-21742.9
-14043.3
-19234.8
-14674.8
-20296.9
-15311.7
-17283.1
-10861.1
-18489.6
-11589.6
-16033
-7055.7
-6967.51
-9153.65
-14358.2
-7206.75
-5207.96
-8976.72
-17740.3
-7234.79
-8488.17
-9411.54
-18864.1
-7479.12
-9565.13
-9966.09
-1085.69
-972.522
-260.584
-1141.19
-4408.1
-4546.88
-2743.37
-5417.21
-2451.43
-3056.92
-4247.03
-8014.78
-11892.6
-9614.24
-9123.72
-11329.8
-7417.31
-7585.36
-8064.52
-6676.79
-13104.5
-11263.5
-11308.2
-9394.73
-6469.4
-5510.62
-12094
-1047.33
-787.15
-581.649
-651.662
-4095.14
-3260.31
-3451.44
-3041.11
-575.607
520.426
-4073.25
-3197.64
-10089.6
-10724.5
-9404.61
-8608.81
-6919.66
-5031.62
-9022.91
-7199.43
-7987.49
-6259.87
-11442.4
-11688.4
-9733.37
-7674.44
-7161.25
-4912.78
-6271.82
-4009.88
-9299.56
-5683.47
-9176.29
-5087.51
-8175.26
-9347.39
-12933.9
-17242.4
-13639.7
-19922.9
-6223.89
-7431.16
-7566.86
-2909.86
-7525.12
-14748.5
-7252.45
-15883.3
-13466.4
-24703.1
-13733
-26057.2
-5538.44
-12542.5
-5173.67
-13474.8
-7466.77
-5920.57
-10765.1
-4391.6
-7211.12
-1827.18
-9268.32
-1252.65
-7411.46
-8929.55
-11384.4
-5317.48
-6216.6
-10601.6
-10110.7
-6975.3
-778.279
-724.197
-523.326
-605.011
-2488.84
-1818.92
-2241.54
-2038.81
1073.82
605.526
-2629.12
-2926.94
-10629.3
-10109
-7618.88
-6608.35
-4000.6
-3388.02
-5646.04
-4670.65
-5262.04
-3850.26
-18192.1
-15991.2
-7881.5
-6764.13
-5928.99
-4565.39
-4863.69
-3169.96
-5145.27
-2275.97
-5574.66
-9157.99
-4885.02
-9242.13
-8183.66
-10260.9
-9155.08
-12494.2
-1001.29
-742.959
-789.074
-679.776
-3639.56
-2636.93
-2989.29
-1726.03
-1478.33
-1756.9
-8329.01
-8966.44
-4689.83
-4231.55
-9222.31
-9522.66
-14052.9
-16118.3
287.179
3777.31
-7345.36
-7101.83
-6920.53
-5459.36
-1094.21
-1000.37
-1177.82
-976.85
-1829.12
-1300.1
-705.122
-618.59
-8164
-3918.97
-6929.55
-3288.7
-9186.47
-3703.93
-10850.6
-3892.75
-5464.44
-10274
-7017.86
-10753.2
-8602.93
-11546.1
-11230
-12512
-5355.82
-9386.94
-4875.85
-9343.3
-8156.14
-10845.2
-9336.22
-11227.1
-12953.2
-13146.4
-14205.6
-13671.4
-5702.62
-9230.63
-6257.4
-9454.5
-772.922
-2510.65
-8180.29
-5841.18
-755.524
-2596.34
-8095.52
-5591.17
-1047.11
-2483.57
-8168.62
-6019.79
-1213.21
-2381.97
-8055.58
-5959.11
-1102.2
-1219.36
-1045.03
-1146.71
-2187.01
-2257.94
-1557
-1714.98
-8492.96
-7876.87
-4153.05
-4244.03
-3842.36
-5257.24
-4186.27
-524.348
-2079.41
-1373.5
-1464.21
-3680.1
2475.54
-1156.72
-13651.8
-11754.6
-10804.7
-9577.22
-6268.42
-1232.46
-1123.81
-1304.46
-1656.6
-2253.95
-1784.41
-2213.15
-2953.84
-8260.93
-8211.58
-4701.45
-6145.57
-5066.33
-6721.57
-3244.28
-5175.94
-4985.59
-5441.33
-1375.58
-1729.46
-3315.64
-4905.9
-9651.33
-7959.6
-7733.16
-5711.99
-6902.45
-4968.34
-6312.91
-4692.49
-4914.14
-5467.06
-8490.79
-8419.7
-11391.4
-7413.38
-10423
-11225.5
-13037.2
-11006
-9767.28
-6189.55
-7246.32
-7277.71
-12369.9
-6113.34
-13160.1
-6150.24
-13901.6
-10859.7
-14646.9
-11063
-10593.5
-4867.21
-11231.2
-4918.04
-8323.74
-6741.03
-7027.18
-9697.22
-7142.89
-7669.3
-6854.42
-9880.09
-8585.85
-6334.26
-7145.29
-10453.5
-9590.28
-6307.94
-8034.52
-10188.8
-922.848
-791.138
-1202.08
-866.774
-1506.58
-1763.78
-1803.91
-1284.17
-8070.78
-7064.3
-4154.92
-1837.62
-7899.29
-7507.74
-6229.51
-5602.93
-5280.89
-4511.76
-2014.61
-2029.84
-4678.9
-2077.49
-8656.71
-7421.07
-4971.42
-3897.28
-3951.82
-2412.97
-3031.77
-1256.84
-4905.45
-136.631
-257.936
-119.943
-41.3355
25.8936
-242.604
-154.413
-61.8473
8.42712
-696.734
-312.136
-22.8376
191.828
-629.583
-369.803
-73.5513
111.783
-1138.5
-461.534
15.1506
440.756
-1121.99
-559.145
-202.094
8.33102
-767.36
-376.523
-185.892
-61.0788
-587.579
-246.754
-28.896
126.58
-1700.4
-603.759
-134.613
170.724
-2036.23
-583.558
-85.8643
595.978
-1635.17
-581.326
-96.8664
301.082
-1850.24
-525.329
-113.042
547.518
-1586.38
-555.583
-44.0532
336.82
-2109.88
-601.194
-65.5623
690.435
-1436.91
-469.933
46.4143
482.71
-2089.43
-580.327
-34.6705
747.303
-239.639
-98.2943
-15.7197
81.7684
-206.785
-75.0763
-28.7996
79.2089
-617.858
-256.982
-29.1172
208.924
-519.333
-197.869
-77.7947
203.854
-1222.48
-428.725
-13.6531
459.264
-1111.93
-374.09
-86.7571
424.168
-1353.97
-508.582
-104.402
333.507
-1025.79
-355.02
-117.301
474.179
-1865.93
-524.903
-98.6722
749.775
-148.234
-56.0631
-17.64
50.4192
-65.8538
-39.087
-19.109
-0.944346
-447.545
-162.203
-68.0044
122.252
-219.888
-117.1
-64.8186
-11.0393
-796.466
-270.046
-103.155
221.691
-453.896
-205.886
-102.453
-10.8693
-1213.72
-389.509
-132.893
333.832
-803.363
-304.45
-136.695
-5.67938
-1604.12
-468.665
-197.38
290.258
-1090.98
-369.222
-176.511
-27.5477
-2153.56
-608.852
-210.622
363.84
-1089.75
-343.888
-144.061
15.1166
-2072.01
-597.321
-241.243
304.559
-1202.21
-382.915
-169.876
-12.5131
-2129.96
-557.703
-149.242
468.539
-979.531
-276.804
-89.5595
70.3771
-2024.91
-478.01
-80.5422
530.444
-870.039
-196.981
-30.4832
117.217
-9.19138
-13.7241
-10.105
-7.03547
-5.5228
-35.3438
-26.4033
-17.3896
-11.755
-9.16795
-18.7234
-31.3094
-23.0856
-15.9888
-12.4691
-76.3616
-58.4258
-38.5324
-25.958
-20.199
-13.3563
-37.7173
-28.316
-19.6305
-15.2738
-99.465
-76.8361
-50.4072
-33.774
-26.2028
-48.1546
-38.5172
-25.3879
-16.9901
-13.1809
-8.06271
-16.7571
-12.5823
-8.70086
-6.83879
-25.5663
-40.8478
-29.3737
-20.1178
-15.7161
3.81739
-13.9092
-11.0597
-7.7426
-6.08817
-61.358
-55.7458
-37.1669
-24.9775
-19.385
-3.48223
-15.8662
-11.8071
-8.17062
-6.42387
10.2003
-19.9969
-16.6122
-11.7097
-9.21257
8.02372
-11.2481
-9.30958
-6.53807
-5.14345
45.2266
-2.78049
-6.75466
-5.38864
-4.43644
30.6607
0.103633
-2.70598
-2.28377
-1.91653
-1.67086
-9.68151
-7.50806
-5.30877
-4.18815
-8.4324
-9.40255
-6.55566
-4.53269
-3.55816
-14.2958
-27.1127
-19.7689
-13.7363
-10.7545
-28.6353
-26.6283
-17.9402
-12.2714
-9.60333
5.51552
-29.5109
-23.081
-16.273
-12.773
-46.5398
-38.7292
-25.5442
-17.389
-13.5286
-55.8297
-46.1661
-30.0892
-20.201
-15.6356
-50.4787
-32.3334
-20.3767
-13.697
-10.5696
-38.2792
-26.6788
-16.851
-11.1956
-8.66649
-68.0399
-202.224
-131.67
-517.724
-91.8533
-717.773
176.575
-657.205
432.3
-135.056
-772.723
-1243.98
58.8496
-101.724
-1138.59
-1768.04
-1410.62
-2000.61
-563.773
-132.817
-29.9847
-6.61454
-1.65388
-152.457
-82.4328
-11.5229
-3.14856
-1.39894
-1742.71
-407.125
-92.1431
-20.2166
-5.06071
-367.42
-111.159
-28.3356
-6.08828
-1.66533
-2940.65
-686.521
-155.701
-34.2704
-8.56001
-634.935
-196.964
-49.0668
-11.528
-2.9138
-3970.9
-926.493
-210.775
-46.519
-11.6329
-799.151
-257.298
-65.0888
-15.324
-3.84574
-5012.82
-1175.63
-268.833
-59.5867
-14.9581
-954.895
-323.226
-82.9067
-19.6248
-4.96088
-6038.83
-1454.18
-336.412
-75.1002
-18.9197
-1503.31
-456.774
-112.208
-25.648
-6.39166
-5588.81
-1341.16
-309.067
-68.7439
-17.272
-1182.76
-386.843
-97.7157
-22.7748
-5.68751
-6255.56
-1509.15
-349.765
-78.1882
-19.7226
-1691.97
-499.662
-121.135
-27.3245
-6.79386
-6539.81
-1564.87
-363.21
-81.1513
-20.4557
-1750.51
-519.346
-127.127
-26.6454
-7.01264
-548.061
-6676.7
-5921.84
-2199.96
-1553.82
-938.456
-3664.03
-2688.27
-6267.51
-5859.89
-2974.81
-2249.96
-425.34
-648.043
-1105.37
-1781.71
-2645.82
-3606.56
-305.844
-653.383
-1351.72
-2336.9
-3487.66
-4631.07
-324.343
-149.587
-554.287
-380.226
-1015.22
-845.781
-1682.4
-1567.59
-2396.65
-2314.29
-3102.32
-2816.97
-4413.04
-4920.06
-5280.72
-7743.28
-8579.12
-9397.11
-5551.46
-6033.12
-5936.7
-5359.74
-4543.04
-3941.21
-384.418
-325.848
-247.635
-154.678
-52.59
-585.371
-495.867
-376.615
-235.137
-79.9278
-997.833
-844.665
-641.126
-400.118
-135.984
-1606.9
-1358.91
-1030.62
-642.895
-218.457
-2382.78
-2012.1
-1524.33
-950.4
-322.929
-3239.99
-2729.57
-2064.81
-1286.99
-437.463
-276.308
-234.12
-177.859
-111.062
-37.7534
-589.941
-499.509
-379.224
-236.699
-80.4472
-1219.74
-1032.09
-783.138
-488.664
-166.068
-2106.74
-1780.93
-1350.37
-842.324
-286.241
-3139.55
-2650.23
-2007.59
-1251.91
-425.474
-4159.36
-3503.86
-2651.17
-1653.25
-562.203
-293.221
-248.597
-188.961
-118.047
-40.142
-135.237
-114.657
-87.1513
-54.4439
-18.5137
-500.834
-424.377
-322.397
-201.322
-68.4417
-343.595
-291.178
-221.228
-138.153
-46.9676
-916.79
-776.343
-589.439
-367.923
-125.052
-763.891
-646.969
-491.267
-306.659
-104.229
-1517.9
-1284.09
-974.078
-607.649
-206.474
-1414.38
-1196.52
-907.579
-566.085
-192.328
-2159.14
-1823.68
-1381.57
-861.164
-292.528
-2084.76
-1760.44
-1333.08
-830.508
-282.007
-2787.13
-2347.44
-1774.54
-1105.02
-375.323
-2529.95
-2129.27
-1607.63
-999.651
-339.171
-3947.61
-3313.55
-2502.31
-1560.78
-531.559
-4366.77
-3643.51
-2747.17
-1719.76
-589.535
-4617.05
-3814.03
-2874.93
-1820.06
-636.253
-6568.86
-5340.76
-4051.13
-2649.78
-984.244
-6887.66
-5464.91
-4203.69
-2917.61
-1228.64
-7225.69
-5636.75
-4382.85
-3175.82
-1454.62
-4968.61
-4173.39
-3154.01
-1968.46
-670.541
-5370.39
-4492.31
-3391.77
-2122.37
-726.025
-5238.03
-4355.34
-3287.57
-2070.04
-715.149
-4654.78
-3834.3
-2899.56
-1852.69
-655.955
-3820.92
-3094.89
-2354.98
-1554.86
-585.014
-3197.57
-2543.42
-1949.81
-1335.05
-536.093
-447.81
-716.523
-1222.89
-1952.64
-2877.38
-3885.81
-337.64
-750.04
-1515.28
-2565.57
-3766.73
-4921.96
-346.088
-168.486
-620.793
-438.994
-1130.58
-950.885
-1853.88
-1728.6
-2642.61
-2588.87
-3416.48
-3228.65
-4700.45
-5184.39
-5521.64
-7886.73
-8641.09
-9416.16
-5795.84
-6175.66
-5957.05
-5281.69
-4436.42
-3892.94
-404.839
-343.277
-260.976
-163.061
-55.4494
-647.656
-549.076
-417.385
-260.776
-88.6779
-1104.89
-936.31
-711.499
-444.45
-151.128
-1763.06
-1493.06
-1134.02
-708.229
-240.816
-2595.25
-2195.58
-1666.52
-1040.65
-353.892
-3498.21
-2954.6
-2240.84
-1399.57
-476.259
-305.202
-258.769
-196.719
-122.908
-41.7941
-677.826
-574.56
-436.71
-272.837
-92.7782
-1368.71
-1159.59
-881.023
-550.319
-187.129
-2315.63
-1960.35
-1488.65
-929.691
-316.138
-3395.62
-2871.39
-2179
-1360.72
-462.809
-4428.27
-3738.17
-2834.44
-1770.47
-602.6
-312.962
-265.428
-201.832
-126.127
-42.8968
-152.385
-129.264
-98.3099
-61.4437
-20.8996
-561.278
-475.966
-361.889
-226.136
-76.9071
-396.97
-336.695
-256.041
-160.012
-54.4214
-1021.82
-866.181
-658.369
-411.317
-139.871
-859.557
-728.774
-554.015
-346.151
-117.714
-1674.56
-1418.66
-1077.78
-673.17
-228.894
-1561.68
-1323.25
-1005.41
-627.983
-213.525
-2384.8
-2018.52
-1532.52
-956.952
-325.386
-2336.9
-1978.39
-1502.15
-937.901
-318.867
-3077.71
-2600.77
-1972.74
-1231.78
-418.993
-2910.04
-2459.93
-1865.8
-1164.48
-395.903
-4217.04
-3552.08
-2691.84
-1683.57
-574.199
-4620.78
-3874.42
-2935.39
-1844.29
-633.386
-4858.03
-4041.67
-3067.12
-1951.09
-683.509
-6738.42
-5521.75
-4220.25
-2775.87
-1033.92
-6985.58
-5581.51
-4322.46
-3015.11
-1272.71
-7262.21
-5681.83
-4430.34
-3216.58
-1474.08
-5197.79
-4376.4
-3315.46
-2073.15
-706.918
-5509.36
-4620.66
-3498
-2193.51
-751.247
-5267.57
-4391.69
-3324.58
-2098.57
-726.157
-4595.58
-3795.02
-2878.95
-1845.68
-655.321
-3734.13
-3029.46
-2312.47
-1533.73
-580.017
-3157.86
-2512.79
-1929.33
-1324.58
-533.581
-19607.3
-14335.9
-5303.73
-4329.16
-3288.13
-4642.69
-4219.04
-12930.2
-14611.5
-11584.1
-13369.3
-8039.54
-11382
-6177.04
-6437.97
-4724.71
-20365.2
-11364.5
-4445.55
-7276.04
-9399.14
-6509.52
-7270.11
-5515.06
-3406.28
-4964.35
-5441.11
-5594.81
-19248
-12981.8
-12832
-9240.33
-9291.74
-9767.77
-4754.27
-6053.67
-7396.93
-14264.8
-12670.3
-11018.8
-10633
-9565.06
-9451.62
-6599.61
-5286.21
-4216.79
-2247.04
-4724.67
-3960.45
-3001.46
-1887.64
-649.221
-3888.72
-3278.55
-2485
-1553.27
-529.309
-2950.53
-2483.79
-1879.02
-1172.21
-398.862
-4177.76
-3526.23
-2672.13
-1667.55
-567.122
-3780.27
-3179.57
-2406.45
-1503.8
-512.699
-9648.31
-8214.77
-6978.1
-6534.31
-6738.43
-11063.2
-9732.15
-8050.35
-6581.67
-3998.93
-8415.28
-5974.78
-4591.89
-3284.58
-1466.3
-10076.8
-8464.4
-6754.45
-5049.93
-2482.37
-6835.91
-5522.19
-4111.01
-2591.73
-909.492
-8984.28
-6743.77
-4983.39
-3205.78
-1187.88
-5376.21
-4414.13
-3301.11
-2067.53
-713.454
-5582.5
-4570.42
-3413.54
-2138.99
-739.302
-4146.02
-3423.9
-2564.07
-1600.67
-548.659
-14575.7
-11925
-10221.5
-9393.21
-8964.38
-8916.34
-6910.92
-5350.76
-3761.53
-1695.68
-3861.85
-3172.77
-2382.97
-1505.45
-527.057
-6345.99
-5243.92
-3969.17
-2533.42
-899.631
-7982.77
-6522.25
-4989.5
-3305.27
-1268.63
-5659.85
-4675.67
-3554.59
-2289.73
-822.418
-6394.47
-5321.34
-4043.15
-2578.6
-907.971
-4880.42
-4070.11
-3080.02
-1942.88
-672.543
-3020.51
-2516.34
-1892.97
-1181.35
-403.624
-4434.41
-3719.13
-2809.74
-1755.29
-598.972
-4786.41
-3965.33
-2980.96
-1869.3
-644.309
-4948.72
-4122.23
-3112.74
-1957.77
-675.891
-13811.4
-11866.7
-10351.9
-9691.8
-8904.65
-9248.93
-6807.78
-5425.49
-4171.69
-2187.73
-10022.3
-8311.8
-6660.26
-5108.95
-2536.43
-7471.11
-5857.44
-4559.39
-3196.15
-1327.44
-7922.62
-6500.8
-4990.86
-3317.59
-1268.22
-7893.72
-6173.57
-4799.68
-3356.33
-1380.51
-4178.41
-3472.24
-2633.08
-1675.52
-588.651
-5398.8
-4525.21
-3423.08
-2144.99
-734.368
-6487.25
-5382.15
-4080.67
-2599.8
-914.38
-505.274
-1429.07
-2254.45
-3022.14
-3745.82
-4419.27
-2551.15
-6862.31
-6546.91
-2507.42
-8743.66
-7332.82
-8785.01
-9747.73
-2307.15
-1490.75
-5358.51
-3117.97
-10238.1
-7232.78
199.553
-2074.27
-5733.06
-5397.67
-2025.6
-7459.86
-6003.94
-7393.33
-8347.43
-1911.68
-886.601
-4602.79
-1647.62
-8521.51
-4340.5
1457.23
-1522.67
-4381.83
-4118.9
-1493.92
-5924.29
-3650.37
-6034.61
-6710.6
-1447.32
-806.613
-3274.9
-1708.95
-6842.56
-1779.42
1591.66
-1129.5
-3413.85
-3280.44
-1150.2
-4567.48
-2260.49
-5049.45
-5961.58
-1095.3
-845.914
-2409.29
-1723.28
-6055.32
-408.171
1195.94
-918.913
-2912.27
-2845.23
-976.836
-3698.19
-1889.11
-4554.25
-5804.7
-872.512
-918.689
-1747.02
-1653.18
-5303.63
-192.505
113.634
-815.589
-2612.78
-2624
-889.035
-3438.55
-2138.17
-4234.72
-5559.33
-678.704
-721.271
-1456.83
-1622.22
-5218.59
-954.906
-462.131
-1383.93
-3395.01
-4879.84
-1883.93
-5503.55
-9588.65
-7174.36
-10356.7
-1028.13
-745.868
-3916.51
-2471.48
-1284.98
-9298.34
-4870.12
-1293.89
-3181.32
-4310.58
-1645.61
-5114.84
-8712.98
-6510.73
-8870.8
-1058.58
-669.951
-4082.36
-2361.7
-463.352
-9167.36
-3718.01
-1149.29
-2835.13
-3568.65
-1336.23
-4699.36
-7872.26
-5594.8
-7884.16
-953.099
-772.759
-3541.82
-2488.09
-660.661
-7497.53
-3598.14
-1007.35
-2584.6
-3000.53
-1100.43
-4429.6
-7235.97
-5035.69
-7233.57
-888.147
-795.179
-3324.99
-2630.41
-433.475
-7030.38
-3690.07
-920.012
-2344.94
-2691.04
-973.132
-4058.58
-6708.63
-4634.16
-6923.01
-840.86
-857.77
-3056.96
-2864.65
-552.798
-6813.72
-3810.78
-859.727
-2104.78
-2510.21
-901.486
-3764.31
-6647.08
-4328.59
-6719.14
-874.734
-985.046
-2737.02
-2727.37
-795.082
-6998.16
-4228.2
5826.47
7355.63
15283.9
22313
22715.2
39150.2
17489.7
44515.2
14258.5
31292.8
21333
32369.4
19134
25114.5
7224.29
8183.72
14261.7
16321.1
18454.8
18313.8
14580.3
18053
21478.6
19313.4
4786.06
3608.51
5877.37
3947.68
12017.6
9531.12
20602.5
14853.8
15933
16562.4
17653.7
16750.4
6113.01
4811.04
37858.5
50697.1
24454.3
30033.1
51023.3
66197.9
26418.6
30239.2
28011.6
39590.7
24419.4
32399.8
14248.4
23015.5
2554.76
873.331
2625.98
955.244
8153.4
3280.99
11260.1
4130.84
7965.79
3061.08
8531.54
2729.96
14593.5
4636.22
18847.4
6348.98
23276.8
11519.8
21303.3
12642.4
21935
14189.7
19280.8
14557.1
16668
9895.2
16646.7
8444.07
21971.3
14102.1
22017.2
14245.9
20349.7
15433.2
20594.1
15517.6
18013.7
11462.1
18663.3
11755.6
16980.1
7316.98
7812
9461.55
17054.1
7984.09
6782.12
9538.5
17995.8
7299.17
8881.95
9563.36
18895.9
7484.03
9676.2
10010.8
3298.1
3556.43
1125.64
2126.43
10263.6
10847.8
3927.41
6890.47
13194.4
14706.4
6266.19
10617
12210.4
1218.76
13292.8
16221
8712.87
884.916
7512.26
11855.7
19017.3
12910.7
9597.39
11564.6
10005
8538.38
13345.6
3107.82
2557.29
1749.47
1762.16
9644.65
8214.08
5778.07
5493.48
12055.6
10343.7
7487.12
6741.17
5886.5
7455.68
12081.5
12479.3
13747.8
12530.7
15474.1
13548.4
10272.8
8639.28
8942.88
9537.01
11757.4
9470.14
10652.9
7933.57
9158.69
6462.79
10536.1
6969.85
10118.9
4955.17
8649.73
9485.14
12431.5
16347.3
13664.5
19965.4
6846.79
7713.35
8934.79
3124.1
7694.36
14906.2
7291.21
15941.2
13521.4
24616.7
13753.4
26078.8
5771.47
12735.4
5228.32
13533.2
7934.34
6111.99
10961.9
4437.67
8240.14
1913.45
9599.17
1001.67
7597.92
9055.6
11473.4
5349.74
6265.36
10641.9
10134.5
6990.83
2032.91
1824.19
1686.53
1495.39
1395.3
1277.44
6817.91
5694.97
5001.89
4342.48
3564.02
3136.65
8434.31
7400.46
6892.16
5216.08
4357.9
4162.09
6646.55
5996.65
5892.14
10977.4
8554.04
7293.93
10209.6
7744.62
6385.72
10744.1
8668.96
7623.9
6494.51
4396.62
3488.28
15805.3
13936.6
12242.2
10040.8
8537.72
7234.82
8784.65
7004.17
5731.84
7268.35
5393.8
4264.34
7300.57
4154.29
2422.68
10172.6
13846.5
8006.85
10414.9
10863.2
16019.8
9671.36
14151.3
105.761
660.716
-396.073
73.0141
2978.29
3464.67
1241.19
760.986
709.245
2436.51
9310.66
13636.6
6619.95
3579.67
9698.48
9623.04
14838.8
16334.2
-566.749
-3987.63
7477.8
7056.14
6989.34
5396.81
913.301
513.739
557.161
221.788
2112.51
302.304
-240.963
-792.928
9204.52
2496.81
6182.19
1680.95
8850.93
2734.43
10703
3493.46
8739.12
11856.8
8092.4
11586.5
13859.8
14745.2
13238.9
13991.7
5705.6
9546.92
6568.6
9468.05
8579.33
11180
9458.19
11313.5
13790.2
13760.4
14442.3
13836.2
5755.55
9260.66
6256.14
9450.85
121.627
1633.19
7722.12
5146.37
-448.513
1215.72
7156.5
4570.94
557.399
1863.46
7909.03
5591.57
1010.06
2131.39
7976.19
5810.61
-608.01
-705.877
184.978
52.2727
-2760.96
-2816.05
-111.719
-237.776
-407.518
-1817.4
1909.6
1299.39
-10189.3
-9411.85
-5479.92
-4090.06
-228.134
-10354.7
-10778.6
-4274.3
-6263.3
-583.914
10068.6
8034.14
7331.13
7059.41
4585.36
-762.492
-730.96
-11.5197
111.813
-2480.88
-2547.52
88.8285
386.758
-2506.21
-3202.21
962.598
1390.65
-5123.68
-2406.46
-8219.85
-5258.89
-3613.35
-2805.49
-4025.96
-3588.79
799.018
1880.4
3729.15
2363.81
1070.53
-1033.33
1165.06
-683.547
2047.43
663.839
2647.58
3071.29
5327.43
4917.16
10064.4
6135.74
8084.7
8212.7
12271.9
9993.64
8165.36
4943.41
4177.9
4198.53
11840.1
5315.49
13020.5
5954.06
13681.2
10201.4
14600.4
10919.7
9848.47
4082.22
11019
4706.99
6791.01
5600.68
5654.29
8403.71
4519.17
5169.4
4883.24
7797.05
7778.87
5585.76
6360.41
9624.55
9336.49
6070.86
7779.37
9949.68
-793.353
-857.725
-976.443
-16.5861
-313.715
-354.481
-3017.08
-3321.29
-3362.93
-115.795
-896.852
-924.481
-3818.61
-4408.6
-4583.53
820.824
-870.082
-1222.35
-1352.53
-1180.08
-882.33
-4010.58
-4174.87
-3933.74
-3280.21
-3818.19
-3798.08
-4054.96
-4513.78
-4463.34
1713.75
-355.542
-534.794
3414.38
1909.28
966.834
-1116.92
-2387.95
-3067.24
-1015.37
-2683.35
-3414.42
-359.105
-2204.58
-2743.78
2822.83
-535.134
-947.058
-14.6722
-36.2432
-53.9307
-83.095
-256.269
-151.895
-130.427
-131.37
19.8047
-78.6591
-200.533
-327.307
-435.867
-299.994
-343.263
-388.107
284.39
-24.0684
-282.256
-574.556
-136.069
-244.384
-336.248
-397.988
-23.2152
-148.994
-169.978
-172.703
239.532
7.77518
-134.213
-237.199
1065.92
221.971
-124.96
-369.451
1663.71
389.51
-25.691
-621.188
764.725
100.315
-207.995
-525.231
1377.93
298.834
-7.52077
-547.24
1124.09
262.023