/*--------------------------------*- C++ -*----------------------------------*\
  =========                 |
  \\      /  F ield         | OpenFOAM: The Open Source CFD Toolbox
   \\    /   O peration     | Website:  https://openfoam.org
    \\  /    A nd           | Version:  11
     \\/     M anipulation  |
\*---------------------------------------------------------------------------*/
FoamFile
{
    format      ascii;
    class       volScalarField;
    location    "2.9";
    object      T;
}
// * * * * * * * * * * * * * * * * * * * * * * * * * * * * * * * * * * * * * //

dimensions      [0 0 0 1 0 0 0];

internalField   nonuniform List<scalar> 
5712
(
540.156
555.724
530.13
548.952
515.57
539.617
490.288
518.901
489.865
512.518
512.424
534.562
526.043
545.181
534.967
552.015
507.312
488.089
526.33
498.498
480.197
460.033
499.291
469.297
547.999
555.341
560.21
564.236
538.242
547.325
554.233
559.936
538.615
524.158
517.216
507.761
535.425
548.67
544.732
544.421
508.207
512.183
522.054
521.208
478.795
482.124
551.525
553.555
527.477
533.29
560.247
562.821
560.325
567.954
567.306
570.854
553.902
565.426
564.07
569.555
541.016
559.944
551.584
565.041
559.52
568.111
562.602
569.193
474.521
463.071
481.454
465.287
443.61
433.352
451.064
435.93
507.979
493.029
501.622
490.743
486.464
466.342
487.81
466.126
456.209
437.285
457.632
437.23
512.585
494.085
513.871
493.937
531.144
557.112
519.753
549.073
525.259
553.599
516.857
546.269
535.391
559.16
521.143
550.56
536.725
559.907
521.203
551.23
554.673
543.394
564.717
556.396
545.553
534.344
561.072
551.643
531.716
521.207
554.644
544.443
460.684
424.405
491.775
516.737
546.602
419.035
455.335
486.604
510.318
537.846
424.185
457.284
486.809
512.633
540.701
523.337
506.176
527.861
511.46
517.618
501.714
525.858
509.263
508.438
493.565
522.657
506.239
409.401
397.632
446.97
435.23
477.052
464.534
500.052
486.447
520.913
505.621
413.37
400.473
448.023
438.402
477.973
468.006
502.925
491.272
523.636
510.353
451.198
446.269
449.418
444.62
417.421
399.245
417.158
398.003
478.9
477.348
480.779
478.195
446.893
443.263
446.767
443.309
416.277
397.739
416.368
397.94
476.071
475.978
475.916
476.08
505.861
504.279
527.418
525.105
506.457
503.438
527.162
522.968
504.381
503.753
527.264
525.592
503.011
502.819
526.105
524.496
488.163
474.73
467.889
491.053
476.499
469.39
484.95
471.309
464.179
488.949
473.877
466.402
477.041
463.351
456.147
485.816
469.625
461.532
385.302
377.034
373.239
421.907
410.561
404.61
450.037
436.288
428.633
469.971
455.25
447.567
484.138
466.071
456.864
386.699
376.262
371.355
427.117
415.029
408.675
454.709
439.913
431.609
474.132
456.406
446.709
486.077
465.523
454.746
415.247
406.524
420.818
412.23
446.096
431.298
456.308
438.745
391.689
369.531
392.893
371.536
392.923
372.211
394.806
374.381
394.43
390.459
393.705
388.197
375.482
379.232
416.356
419.204
444.12
446.919
397.731
402.132
397.614
400.361
382.338
385.592
347.85
330.711
353.34
334.267
350.406
331.226
355.848
335.301
354.447
331.85
361.727
337.166
365.694
340.407
367.717
342.436
389.373
380.052
396.858
383.573
414.746
404.685
422.108
407.879
376.601
362.739
369.25
359.185
401.16
385.577
403.088
386.248
426.64
409.626
428.304
409.932
380.781
364.862
382.861
365.734
357.254
334.24
345.809
327.981
350.421
329.94
342.496
325.484
361.445
337.438
347.843
329.625
363.779
339.634
348.783
330.554
331.191
319.475
323.721
315.74
333.313
322.067
323.962
316.425
337.569
328.069
324.788
318.566
370.526
393.894
353.261
340.522
324.485
389.049
365.896
346.638
334.383
320.381
393.601
370.439
351.898
337.461
322.42
309.347
299.597
307.531
298.416
312.44
302.687
308.938
299.962
318.631
308.854
311.701
302.822
379.026
367.388
356.085
344.69
338.865
328.593
326.661
316.599
315.123
306.259
382.392
368.212
359.889
346.242
342.833
330.605
329.529
317.85
317.27
307.572
364.044
345.911
367.123
347.899
387.011
367.457
389.371
368.048
348.979
332.525
346.051
330.297
369.732
349.177
370.47
349.781
391.054
368.374
391.524
368.797
351.631
334.085
352.399
334.644
332.901
318.366
318.89
307.084
331.313
316.625
318.125
306.407
334.312
319.631
319.403
307.272
335.857
320.328
320.288
308.107
289.188
284.215
282.291
283.37
279.363
278.027
292.714
287.237
285.083
285.077
280.883
279.364
299.201
293.285
290.852
287.737
282.856
281.02
356.054
348.707
345.403
334.232
327.79
325.085
318.662
312.44
310.029
305.913
299.071
296.136
289.639
283.915
281.677
354.628
345.162
341.145
333.615
324.862
321.134
318.587
310.459
307.13
304.843
297.342
294.516
288.339
283.011
280.959
317.86
309.682
304.111
299.349
319.467
310.293
304.256
299.265
317.943
309.782
304.244
299.472
320.019
310.611
304.522
299.508
317.877
309.872
304.552
299.863
320.444
310.935
304.945
299.935
321.979
311.755
305.181
299.902
323.294
312.619
305.65
300.155
319.365
310.747
305.107
300.204
317.181
310.262
305.274
300.84
317.36
309.86
304.845
300.348
316.004
309.63
304.978
300.838
321.022
311.59
305.417
300.262
318.176
310.857
305.605
301.052
322.347
312.384
305.864
300.594
319.017
311.424
306.009
301.425
315.238
308.757
303.98
299.652
312.081
307.707
303.831
300.128
315.229
308.802
304.091
299.785
312.307
307.822
303.917
300.221
315.328
308.923
304.312
300.077
312.988
308.127
304.113
300.409
315.069
308.976
304.549
300.494
313.517
308.409
304.352
300.687
314.732
309.037
304.751
300.93
309.461
306.93
303.573
300.995
307.901
306.542
303.472
301.295
309.984
307.128
303.682
301.081
308.485
306.757
303.575
301.365
310.928
307.504
303.868
301.211
309.481
307.143
303.755
301.486
312.06
307.996
304.168
301.432
310.596
307.618
304.007
301.661
313.121
308.566
304.536
301.678
311.502
308.123
304.302
301.874
314.578
309.636
305.179
302.095
312.777
309.189
305.044
302.43
313.889
309.113
304.847
301.868
312.143
308.66
304.657
302.133
315.196
310.139
305.496
302.32
313.414
309.739
305.437
302.741
315.859
310.653
305.88
302.643
314.12
310.302
305.859
303.09
294.261
290.509
287.663
285.766
284.819
294.256
290.518
287.672
285.772
284.824
294.335
290.549
287.687
285.781
284.831
294.353
290.573
287.704
285.793
284.84
294.436
290.602
287.717
285.8
284.846
294.469
290.639
287.743
285.818
284.859
294.615
290.73
287.8
285.856
284.888
294.827
290.861
287.881
285.909
284.929
294.571
290.681
287.765
285.832
284.87
294.701
290.726
287.787
285.845
284.88
294.521
290.639
287.738
285.814
284.856
294.634
290.682
287.76
285.827
284.866
294.702
290.763
287.816
285.866
284.896
294.824
290.8
287.834
285.876
284.903
294.904
290.885
287.892
285.916
284.934
295.002
290.906
287.899
285.919
284.937
294.287
290.503
287.656
285.761
284.815
294.318
290.501
287.652
285.757
284.812
294.343
290.533
287.673
285.771
284.823
294.36
290.523
287.665
285.765
284.818
294.435
290.58
287.7
285.788
284.836
294.437
290.564
287.688
285.78
284.83
294.538
290.626
287.726
285.805
284.849
294.523
290.611
287.716
285.798
284.843
294.593
290.654
287.742
285.815
284.857
534.428
531.931
533.916
531.42
533.307
530.938
533.359
531.114
535.068
532.924
538.623
539.067
537.664
537.331
538.941
539.649
538.983
539.535
565.212
571.339
572.626
572.917
572.979
558.654
569.544
572.22
572.829
572.959
565.252
571.359
572.633
572.918
572.979
558.679
569.571
572.227
572.832
572.959
565.242
571.372
572.637
572.92
572.98
558.661
569.587
572.233
572.834
572.96
565.416
571.423
572.65
572.922
572.98
558.848
569.645
572.248
572.837
572.96
565.918
571.531
572.673
572.927
572.982
559.452
569.779
572.276
572.843
572.962
566.317
571.57
572.676
572.927
572.981
561.043
570.087
572.335
572.854
572.964
566.242
571.571
572.678
572.928
572.982
560.458
569.97
572.314
572.851
572.964
566.314
571.563
572.674
572.927
572.981
561.296
570.145
572.346
572.856
572.964
566.35
571.571
572.675
572.927
572.981
561.314
570.16
572.348
572.857
572.965
429.525
464.881
462.5
425.22
408.671
410.143
411.966
414.819
423.611
427.541
453.393
462.331
461.226
470.794
437.539
442.024
425.386
428.727
418.703
420.736
372.526
354.712
307.766
301.187
304.215
300.966
305.829
370.892
365.217
347.367
354.987
351.774
327.782
338.077
334.018
321.861
325.823
320.157
367.507
341.134
324.859
320.963
329.021
324.504
316.35
314.749
312.936
309.17
318.165
315.081
369.18
347.652
355.827
336.33
329.006
341.618
317.048
309.814
320.053
353.873
337.367
322.48
306.369
286.814
343.067
330.731
316.999
301.645
283.699
304.299
299.427
293.026
285.494
277.249
298.43
294.515
289.326
283.189
276.463
301.14
296.784
291.026
284.238
276.817
298.233
294.349
289.197
283.105
276.434
302.578
297.988
291.936
284.807
277.012
352.327
334.869
319.594
303.773
285.757
346.589
329.166
314.135
298.944
282.326
336.821
324.913
311.61
297.229
281.546
338.867
322.979
308.861
294.837
280.507
336.331
320.771
306.93
293.383
279.876
321.354
313.044
302.885
291.49
279.279
329.367
318.955
306.955
293.943
280.141
325.991
316.196
304.794
292.465
279.569
316.454
309.218
300.135
289.799
278.693
319.636
311.589
301.733
290.712
278.99
315.014
308.067
299.288
289.27
278.509
350.84
334.54
319.803
304.074
285.904
332.453
322.05
309.865
296.267
281.208
319.071
311.402
301.827
290.914
279.1
315.804
308.844
300.01
289.824
278.732
322.613
314.316
304.088
292.436
279.682
318.897
311.426
302.006
291.133
279.206
311.862
305.7
297.746
288.456
278.269
310.456
304.517
296.821
287.844
278.048
308.844
303.149
295.753
287.144
277.799
305.536
300.434
293.751
285.921
277.387
313.37
306.824
298.458
288.812
278.367
310.724
304.707
296.933
287.894
278.06
351.932
335.901
321.295
305.467
286.608
337.698
326.518
313.699
299.237
282.585
344.008
330.544
316.722
301.391
283.538
328.891
319.595
308.298
295.347
280.82
322.764
314.615
304.464
292.762
279.811
333.053
322.755
310.593
296.879
281.473
312.464
306.178
298.081
288.649
278.331
306.105
300.914
294.123
286.162
277.472
315.051
308.271
299.622
289.605
278.661
507.318
543.604
500.92
538.703
478.158
520.592
484.335
525.563
489.835
476.538
519.415
492.898
465.85
451.686
493.855
465.444
523.531
537.12
551.826
558.094
517.43
530.721
547.995
554.923
531.875
507.896
511.268
495.394
521.131
542.969
542.657
543.953
505.937
511.633
520.364
520.816
477.305
481.772
549.293
553.066
525.087
532.72
558.5
562.46
550.318
564.653
563.795
569.672
544.291
562.232
561.007
568.469
531.875
556.916
547.19
563.547
557.952
567.551
562.288
569.074
470.458
462.763
478.915
465.333
442.756
435.536
450.303
437.382
504.661
492.355
496.004
489.232
485.335
466.503
487.534
466.219
455.957
438.165
457.614
437.548
511.059
493.848
513.472
493.899
528.408
556.148
519.032
548.794
520.641
551.955
515.391
545.698
534.103
558.688
520.843
550.44
536.377
559.773
521.133
551.2
537.948
523.795
559.386
549.671
530.295
516.954
556.104
545.522
518.991
507.361
550.463
539.61
461.836
434.592
486.933
510.952
544.392
431.712
457.599
480.951
503.063
534.997
432.267
458.896
484.862
510.23
539.734
504.424
491.199
519.724
507.515
500.726
488.117
519.119
506.473
494.7
482.485
518.049
505.167
424.91
416.393
450.808
441.398
473.111
462.486
494.332
482.657
519.114
506.504
424.133
413.442
451.696
444.425
477.626
470.25
501.653
492.433
523.331
512.028
453.33
449.775
450.925
446.949
422.95
407.22
420.276
402.581
479.354
478.357
480.974
479.399
447.815
444.554
447.077
443.717
417.941
400.093
416.9
398.665
476.455
476.622
476.057
476.292
505.882
504.644
527.437
525.298
506.089
503.814
527.022
523.269
504.486
504.016
527.316
525.722
503.063
502.921
526.13
524.545
483.055
479.472
496.912
492.102
480.017
475.897
495.647
489.954
474.18
469.988
493.78
486.844
409.026
403.93
433.948
428.513
454.61
448.763
473.907
468.166
493.41
484.109
403.481
397.451
438.11
431.455
462.499
454.448
481.305
471.384
494.468
482.331
413.225
406.608
421.777
413.301
438.538
427.31
454.625
437.41
395.774
376.691
399.283
379.075
395.265
378.491
399.226
380.705
397.537
392.656
396.715
391.544
381.002
384.027
417.245
419.539
443.784
446.887
399.81
402.858
399.553
401.047
385.475
386.721
361.563
343.467
363.368
344.693
362.962
343.077
364.365
344.295
365.671
342.408
368.419
344.506
369.759
345.013
369.138
344.047
395.912
387.54
400.258
387.983
417.628
409.849
423.456
410.967
381.769
367.895
378.57
367.75
402.981
387.965
403.673
387.025
427.424
411.328
428.584
410.501
383.555
367.671
383.738
366.64
363.852
340.418
351.043
332.534
361.39
338.861
350.883
332.297
365.069
341.11
350.745
332.253
364.925
340.842
349.72
331.415
357.85
352.557
340.511
335.528
359.147
354.208
339.907
335.161
361.297
357.458
339.032
335.065
390.595
410.898
374.038
358.035
336.187
409.425
390.504
373.695
356.979
334.1
407.295
386.131
366.888
350.213
331.609
345.819
337.724
328.433
317.567
348.298
340.763
328.797
318.356
352.222
345.526
329.377
319.491
403.063
395.271
384.375
377.372
367.805
361.694
350.964
343.948
328.959
319.484
399.251
387.428
378.542
367.04
360.013
349.117
343.588
332.256
326.717
316.393
374.05
357.513
372.549
354.202
395.782
378.686
394.014
374.118
354.514
338.362
355.757
340.646
372.484
352.347
371.328
350.737
393.39
371.428
392.254
369.72
354.503
337.059
353.296
335.545
337.904
323.124
322.855
310.545
339.708
324.74
324.357
311.968
337.017
322.128
321.627
309.168
336.74
321.12
320.994
308.687
330.821
328.444
299.75
297.832
334.827
332.018
300.975
298.817
339.927
335.623
302.366
298.269
388.286
383.27
370.857
366.317
355.662
351.532
336.336
330.289
301.413
295.094
376.855
371.893
356.738
352.193
338.792
334.479
319.717
314.909
294.829
290.03
326.606
315.37
307.87
301.833
327.216
315.474
307.725
301.576
326.101
315.131
307.767
301.762
326.794
315.196
307.604
301.552
325.145
314.709
307.78
301.953
325.988
314.738
307.552
301.676
325.597
314.285
306.927
301.081
324.583
313.531
306.284
300.59
323.937
313.948
307.364
301.774
320.755
312.879
307.211
302.293
323.563
314.096
307.77
302.319
321.133
313.284
307.577
302.677
323.862
313.614
306.869
301.307
320.304
312.443
306.812
302.005
323.315
313.08
306.367
300.957
319.727
311.958
306.42
301.755
325.362
315.103
308.13
302.403
323.45
314.681
308.372
303.2
324.873
314.902
308.082
302.402
323.161
314.554
308.308
303.175
324.073
314.567
308.038
302.498
322.741
314.328
308.19
303.136
322.679
314.043
307.963
302.738
322.089
314.025
308.085
303.165
321.276
313.551
307.869
303.069
321.48
314.298
308.356
304.534
320.093
314.082
308.425
305.112
321.417
314.219
308.312
304.507
320.069
314.005
308.372
305.073
321.206
314.038
308.171
304.389
319.91
313.836
308.241
304.976
320.739
313.735
308.023
304.275
319.504
313.562
308.076
304.857
319.891
313.285
307.831
304.172
318.683
313.168
307.858
304.711
317.974
312.211
307.117
303.684
316.452
312.038
307.172
304.18
318.864
312.755
307.489
303.942
317.494
312.63
307.547
304.479
317.184
311.681
306.686
303.332
315.544
311.438
306.728
303.816
316.512
311.164
306.279
302.986
314.807
310.857
306.285
303.446
295.712
291.384
288.2
286.119
285.091
295.642
291.361
288.19
286.113
285.087
295.658
291.347
288.177
286.103
285.079
295.563
291.309
288.157
286.09
285.069
295.603
291.303
288.147
286.083
285.063
295.472
291.248
288.118
286.065
285.049
295.314
291.155
288.062
286.028
285.021
295.091
291.022
287.981
285.975
284.98
295.474
291.225
288.099
286.051
285.039
295.5
291.203
288.08
286.037
285.028
295.586
291.276
288.128
286.07
285.053
295.59
291.25
288.107
286.055
285.042
295.324
291.139
288.048
286.018
285.013
295.368
291.126
288.034
286.008
285.005
295.12
291.016
287.973
285.969
284.975
295.192
291.02
287.969
285.965
284.972
295.809
291.411
288.211
286.125
285.096
295.893
291.428
288.217
286.128
285.098
295.773
291.384
288.194
286.113
285.086
295.863
291.407
288.204
286.119
285.091
295.72
291.342
288.166
286.094
285.072
295.806
291.368
288.179
286.102
285.078
295.683
291.303
288.14
286.077
285.058
295.73
291.321
288.149
286.082
285.063
295.649
291.278
288.124
286.066
285.05
531.243
529.852
531.406
529.984
531.887
530.456
532.989
531.448
535.199
533.542
538.708
539.201
537.757
537.558
539.002
539.732
539.005
539.564
564.789
571.274
572.615
572.915
572.979
558.013
569.416
572.196
572.825
572.958
564.92
571.308
572.623
572.917
572.979
558.197
569.47
572.207
572.829
572.958
565.054
571.341
572.631
572.918
572.979
558.414
569.526
572.22
572.831
572.959
565.367
571.412
572.647
572.922
572.98
558.814
569.622
572.242
572.836
572.96
565.939
571.532
572.672
572.927
572.982
559.523
569.78
572.275
572.843
572.962
566.337
571.574
572.677
572.928
572.982
561.089
570.096
572.337
572.855
572.964
566.267
571.575
572.679
572.928
572.982
560.522
569.98
572.315
572.851
572.963
566.327
571.565
572.674
572.927
572.981
561.324
570.151
572.347
572.857
572.965
566.354
571.572
572.676
572.927
572.981
561.324
570.163
572.348
572.857
572.965
429.749
464.699
461.741
425.836
419.534
425.502
417.18
424.595
445.989
461.964
449.794
463.901
283.885
284.531
285.97
288.281
291.592
296.022
284.434
285.091
286.551
288.872
292.128
296.389
283.468
283.262
284.158
284.024
285.7
285.731
288.195
288.541
291.725
292.47
296.223
297.077
301.651
308.467
316.612
326.128
335.229
341.18
301.677
307.923
314.968
322.296
328.715
332.705
282.85
281.362
279.364
276.98
274.354
283.434
281.856
279.739
277.214
274.434
284.734
282.957
280.576
277.736
274.611
286.82
284.723
281.916
278.573
274.895
289.806
287.248
283.831
279.767
275.301
293.793
290.613
286.379
281.356
275.841
283.346
281.782
279.684
277.179
274.422
283.94
282.285
280.065
277.417
274.503
285.257
283.4
280.912
277.946
274.682
287.351
285.172
282.256
278.784
274.967
290.286
287.652
284.136
279.957
275.366
294.119
290.886
286.585
281.484
275.885
282.473
281.042
279.121
276.828
274.302
282.287
280.884
279.001
276.753
274.277
283.097
281.571
279.523
277.079
274.388
282.975
281.468
279.445
277.03
274.371
284.49
282.751
280.42
277.639
274.578
284.518
282.775
280.438
277.65
274.582
286.743
284.659
281.868
278.543
274.885
287.055
284.924
282.069
278.668
274.928
289.927
287.352
283.91
279.817
275.318
290.6
287.921
284.341
280.085
275.409
293.976
290.77
286.498
281.429
275.865
294.746
291.419
286.988
281.733
275.969
298.843
294.862
289.591
283.357
276.521
304.925
299.956
293.436
285.757
277.34
312.12
305.942
297.951
288.596
278.319
320.383
312.751
303.104
291.893
279.489
328.04
318.964
307.841
295.025
280.67
332.955
322.926
310.881
297.075
281.47
298.863
294.878
289.603
283.367
276.525
304.442
299.556
293.137
285.574
277.278
310.692
304.773
297.076
288.044
278.126
317.131
310.115
301.113
290.597
279.013
322.702
314.706
304.591
292.825
279.803
326.143
317.537
306.745
294.218
280.304
284
284.881
286.575
289.175
292.822
297.652
284.551
285.449
287.166
289.767
293.331
297.914
283.584
283.382
284.515
284.395
286.321
286.384
289.125
289.532
293.024
293.851
298.011
299.031
303.699
310.831
319.085
328.327
336.731
341.711
303.495
309.928
316.968
324.02
329.884
333.119
282.954
281.45
279.432
277.022
274.368
283.751
282.126
279.946
277.344
274.478
285.283
283.425
280.934
277.961
274.688
287.632
285.416
282.447
278.906
275.009
290.925
288.205
284.565
280.229
275.459
295.28
291.888
287.36
281.974
276.053
283.453
281.873
279.753
277.223
274.437
284.265
282.562
280.277
277.55
274.548
285.816
283.876
281.276
278.175
274.76
288.165
285.867
282.788
279.119
275.082
291.381
288.589
284.855
280.41
275.52
295.511
292.079
287.503
282.064
276.083
282.579
281.132
279.19
276.871
274.317
282.396
280.977
279.072
276.797
274.292
283.42
281.846
279.733
277.21
274.432
283.312
281.754
279.663
277.167
274.418
285.054
283.231
280.786
277.869
274.656
285.11
283.279
280.823
277.892
274.664
287.588
285.379
282.419
278.889
275.003
287.956
285.692
282.657
279.038
275.054
291.109
288.363
284.686
280.305
275.485
291.857
288.997
285.168
280.606
275.587
295.608
292.17
287.576
282.109
276.098
296.531
292.952
288.17
282.48
276.224
300.718
296.478
290.84
284.148
276.792
307.101
301.843
294.904
286.693
277.662
314.416
307.952
299.53
289.61
278.67
322.45
314.584
304.565
292.844
279.821
329.473
320.251
308.882
295.713
280.915
333.466
323.389
311.259
297.328
281.561
300.527
296.31
290.71
284.067
276.765
306.284
301.149
294.374
286.36
277.548
312.54
306.38
298.332
288.847
278.402
318.735
311.52
302.22
291.31
279.26
323.797
315.672
305.358
293.322
279.977
326.531
317.881
307.019
294.396
280.367
373.336
355.403
310.619
303.495
307.417
303.532
308.919
380.38
378.764
356.755
369.262
335.227
347.564
328.335
332.763
325.84
373.828
347.871
331.072
326.074
334.823
328.976
319.604
318.744
317.838
313.333
323.633
319.682
371.71
349.66
360.298
339.364
332.841
346.813
320.875
313.461
324.546
354.756
338.198
323.199
306.893
287.028
343.764
331.381
317.547
302.026
283.846
306.929
301.711
294.806
286.629
277.639
300.545
296.339
290.736
284.082
276.77
304.083
299.331
293.004
285.496
277.249
300.585
296.377
290.767
284.1
276.775
305.424
300.455
293.855
286.029
277.432
363.143
345.356
328.585
310.075
288.237
362.042
344.081
326.749
307.521
285.37
346.482
334.102
319.323
302.443
283.425
355.42
338.93
322.36
303.969
283.76
328.616
319.7
308.319
295.075
280.536
339.01
328.047
314.531
299.01
281.931
322.672
314.845
304.683
292.778
279.734
326.542
318.026
307.055
294.254
280.238
320.497
313.055
303.34
291.933
279.441
357.758
341.288
325.638
308.215
287.598
339.144
328.276
315.027
299.736
282.458
325.027
316.785
306.175
293.763
280.096
320.641
313.162
303.463
292.07
279.514
328.197
319.382
308.198
295.143
280.636
323.137
315.218
305.046
293.118
279.9
314.896
308.369
299.852
289.814
278.74
314.182
307.794
299.407
289.509
278.624
313.414
307.168
298.924
289.186
278.505
309.386
303.789
296.375
287.599
277.965
318.537
311.43
302.134
291.198
279.196
315.03
308.507
299.939
289.833
278.731
354.678
338.493
323.536
307.086
287.28
339.689
328.36
315.233
300.289
282.98
348.608
334.899
320.429
303.969
284.507
331.817
322.254
310.467
296.791
281.337
326.415
317.897
307.111
294.501
280.423
338.179
327.51
314.536
299.538
282.436
316.044
309.336
300.58
290.262
278.89
309.484
303.864
296.434
287.642
277.982
319.284
312.033
302.619
291.55
279.338
280.959
296.329
310.359
322.457
331.981
339.083
489.404
483.756
461.181
466.728
474.638
466.055
452.022
441.874
507.902
522.587
501.831
515.038
493.009
484.868
503.967
480.221
475.633
453.625
458.102
467.898
460.298
445.981
437.242
498.602
509.284
493.297
502.695
485.088
477.535
493.038
467.487
464.121
443.09
446.391
458.083
451.898
437.147
429.725
484.423
494.83
480.178
489.6
473.864
467.461
481.722
454.396
451.899
432.082
434.625
447.065
441.726
427.266
420.839
471.128
482.193
467.704
477.894
462.562
456.428
470.901
444.941
442.909
424.061
426.221
438.71
434.079
419.84
413.939
461.119
472.926
458.19
469.475
454.028
448.604
463.372
438.547
436.742
418.58
420.548
432.968
428.899
414.663
409.162
454.539
467.917
451.852
464.558
448.385
443.54
458.45
413.36
410.299
435.138
439.302
406.027
400.726
428.34
419.989
391.612
371.79
390.629
373.327
386.888
386.245
375.792
409.318
406.456
429.638
433.275
402.447
397.488
423.593
415.825
387.155
367.864
386.321
369.574
382.795
382.596
371.846
402.864
400.322
421.432
424.385
396.742
392.18
416.371
409.627
382.541
362.922
381.646
364.492
378.426
378.169
366.606
394.788
392.559
412.116
414.55
389.203
384.637
407.813
401.479
375.669
356.662
374.887
358.081
371.939
371.65
360.261
388.265
386.228
405.049
407.202
383.206
378.867
401.162
395.307
369.694
351.873
369.012
352.963
366.566
366.235
355.239
383.573
381.669
400.131
402.127
379.031
375.158
396.493
391.047
365.841
348.635
365.296
349.721
363.107
362.984
352.268
540.748
556.226
530.161
548.911
515.581
539.599
490.277
518.883
489.853
512.495
512.442
534.547
526.094
545.16
535.669
552.652
507.309
488.081
526.316
498.487
480.182
460.019
499.273
469.283
548.446
555.643
560.567
564.465
538.242
547.311
554.179
559.895
538.595
524.151
517.203
507.753
535.415
548.648
544.726
544.417
508.199
512.175
522.045
521.201
478.784
482.114
551.517
553.551
527.469
533.284
560.241
562.819
560.53
568.033
567.449
570.906
553.883
565.418
564.044
569.545
541.004
559.939
551.568
565.035
559.514
568.109
562.6
569.192
474.513
463.063
481.445
465.279
443.599
433.343
451.053
435.921
507.97
493.023
501.615
490.737
486.456
466.335
487.802
466.119
456.199
437.277
457.623
437.223
512.578
494.079
513.865
493.931
531.136
557.109
519.749
549.071
525.251
553.596
516.852
546.267
535.385
559.158
521.139
550.558
536.72
559.905
521.199
551.229
554.94
543.696
564.825
556.544
545.531
534.32
561.062
551.627
531.704
521.195
554.638
544.436
460.677
424.397
491.768
516.73
546.598
419.029
455.329
486.598
510.309
537.841
424.177
457.277
486.803
512.628
540.698
523.635
506.416
528.062
511.625
517.6
501.707
525.852
509.263
508.427
493.559
522.653
506.238
409.396
397.628
446.965
435.226
477.046
464.529
500.045
486.442
520.909
505.62
413.364
400.468
448.017
438.398
477.968
468.002
502.921
491.268
523.633
510.351
451.192
446.264
449.412
444.615
417.414
399.24
417.151
397.998
478.895
477.343
480.774
478.19
446.888
443.258
446.762
443.304
416.27
397.734
416.362
397.936
476.066
475.974
475.911
476.075
505.858
504.275
527.415
525.102
506.453
503.434
527.159
522.965
504.377
503.749
527.261
525.589
503.007
502.816
526.102
524.494
488.364
474.902
468.052
491.208
476.637
469.517
484.95
471.313
464.183
488.954
473.886
466.413
477.04
463.353
456.151
485.817
469.63
461.539
385.3
377.033
373.239
421.904
410.561
404.611
450.035
436.288
428.634
469.97
455.251
447.57
484.138
466.074
456.868
386.696
376.26
371.355
427.114
415.028
408.676
454.707
439.913
431.611
474.131
456.407
446.711
486.076
465.525
454.749
415.201
406.497
420.772
412.203
446.065
431.278
456.276
438.726
391.597
369.546
392.76
371.519
392.847
372.161
394.734
374.34
394.388
390.415
393.676
388.166
375.443
379.196
416.336
419.189
444.104
446.906
397.703
402.115
397.592
400.345
382.313
385.576
347.87
330.705
353.343
334.249
350.385
331.219
355.834
335.296
354.425
331.842
361.706
337.158
365.676
340.399
367.705
342.43
389.356
380.04
396.841
383.563
414.732
404.674
422.094
407.869
376.584
362.729
369.232
359.174
401.146
385.568
403.077
386.24
426.628
409.617
428.294
409.924
380.767
364.853
382.85
365.727
357.24
334.233
345.801
327.975
350.408
329.933
342.487
325.479
361.433
337.431
347.835
329.62
363.769
339.629
348.776
330.55
331.149
319.415
323.713
315.725
333.308
322.065
323.956
316.421
337.559
328.064
324.782
318.561
370.515
393.885
353.251
340.513
324.48
389.041
365.887
346.63
334.376
320.375
393.592
370.429
351.889
337.453
322.414
309.289
299.531
307.528
298.41
312.44
302.691
308.934
299.957
318.629
308.854
311.698
302.819
379.02
367.383
356.079
344.686
338.859
328.589
326.656
316.596
315.119
306.256
382.385
368.208
359.882
346.237
342.826
330.601
329.524
317.846
317.266
307.569
364.036
345.906
367.116
347.894
387.003
367.451
389.364
368.042
348.972
332.521
346.044
330.292
369.725
349.173
370.464
349.776
391.047
368.369
391.518
368.792
351.625
334.081
352.394
334.64
332.896
318.362
318.886
307.082
331.307
316.621
318.121
306.404
334.307
319.628
319.399
307.27
335.852
320.325
320.285
308.104
289.118
284.133
282.203
283.383
279.351
278.007
292.722
287.245
285.09
285.073
280.885
279.365
299.203
293.288
290.855
287.735
282.857
281.02
356.051
348.706
345.403
334.23
327.789
325.084
318.66
312.44
310.029
305.913
299.072
296.137
289.638
283.915
281.677
354.626
345.161
341.144
333.612
324.861
321.134
318.585
310.459
307.13
304.841
297.342
294.516
288.338
283.01
280.959
317.854
309.676
304.103
299.339
319.449
310.281
304.244
299.254
317.939
309.78
304.243
299.472
320.017
310.61
304.521
299.508
317.873
309.87
304.551
299.862
320.44
310.933
304.944
299.934
321.976
311.753
305.179
299.901
323.291
312.617
305.649
300.154
319.361
310.745
305.106
300.203
317.178
310.26
305.272
300.839
317.357
309.858
304.844
300.348
316
309.628
304.976
300.837
321.018
311.588
305.416
300.261
318.173
310.855
305.604
301.051
322.344
312.382
305.863
300.593
319.014
311.422
306.007
301.424
315.235
308.754
303.974
299.643
312.075
307.703
303.827
300.121
315.225
308.8
304.09
299.784
312.305
307.82
303.916
300.221
315.324
308.921
304.311
300.076
312.985
308.125
304.112
300.409
315.066
308.974
304.548
300.493
313.514
308.408
304.351
300.686
314.728
309.035
304.749
300.929
309.456
306.926
303.569
300.988
307.891
306.536
303.468
301.291
309.982
307.127
303.681
301.08
308.484
306.756
303.574
301.364
310.925
307.502
303.866
301.21
309.479
307.141
303.754
301.485
312.058
307.994
304.167
301.431
310.594
307.617
304.006
301.66
313.118
308.564
304.534
301.677
311.499
308.121
304.301
301.873
314.575
309.634
305.177
302.094
312.774
309.187
305.043
302.429
313.886
309.111
304.846
301.867
312.14
308.658
304.656
302.132
315.193
310.137
305.494
302.319
313.411
309.737
305.435
302.74
315.857
310.651
305.879
302.642
314.118
310.3
305.858
303.089
294.257
290.507
287.662
285.765
284.819
294.251
290.516
287.67
285.771
284.823
294.335
290.549
287.687
285.781
284.831
294.353
290.573
287.704
285.793
284.84
294.436
290.602
287.717
285.801
284.846
294.469
290.639
287.744
285.818
284.86
294.615
290.73
287.8
285.856
284.888
294.827
290.86
287.881
285.909
284.93
294.571
290.681
287.765
285.832
284.87
294.7
290.725
287.787
285.846
284.88
294.521
290.639
287.738
285.814
284.856
294.634
290.682
287.76
285.827
284.866
294.702
290.763
287.816
285.866
284.896
294.824
290.8
287.834
285.876
284.904
294.904
290.885
287.892
285.916
284.934
295.001
290.906
287.899
285.919
284.937
294.283
290.502
287.655
285.76
284.815
294.315
290.5
287.651
285.757
284.812
294.342
290.533
287.673
285.771
284.823
294.36
290.523
287.665
285.765
284.818
294.435
290.579
287.7
285.788
284.836
294.437
290.564
287.688
285.78
284.83
294.538
290.626
287.726
285.805
284.849
294.523
290.611
287.716
285.798
284.843
294.593
290.654
287.742
285.815
284.857
534.495
532.007
533.926
531.428
533.309
530.94
533.358
531.114
535.067
532.924
538.621
539.065
537.662
537.33
538.939
539.648
538.981
539.533
565.265
571.352
572.63
572.917
572.979
558.688
569.553
572.223
572.83
572.959
565.249
571.359
572.632
572.918
572.979
558.682
569.572
572.227
572.832
572.959
565.242
571.372
572.637
572.92
572.98
558.662
569.587
572.233
572.834
572.96
565.416
571.423
572.65
572.922
572.98
558.848
569.645
572.248
572.837
572.961
565.918
571.531
572.673
572.927
572.982
559.452
569.779
572.276
572.843
572.962
566.317
571.57
572.676
572.927
572.981
561.043
570.087
572.335