/*--------------------------------*- C++ -*----------------------------------*\
  =========                 |
  \\      /  F ield         | OpenFOAM: The Open Source CFD Toolbox
   \\    /   O peration     | Website:  https://openfoam.org
    \\  /    A nd           | Version:  11
     \\/     M anipulation  |
\*---------------------------------------------------------------------------*/
FoamFile
{
    format      ascii;
    class       volScalarField;
    location    "0.6";
    object      gradTx;
}
// * * * * * * * * * * * * * * * * * * * * * * * * * * * * * * * * * * * * * //

dimensions      [0 -1 0 1 0 0 0];

internalField   nonuniform List<scalar> 
5712
(
-8728.77
-11182.5
-20268.1
-30015.6
-30812.2
-52937
-23245.1
-58675.4
-18601.6
-40762.9
-27807.4
-42546.1
-24644.2
-32863.4
-10943.3
-12665.2
-20458.5
-23458.5
-25814.4
-25717.5
-19879
-24044
-28971.7
-25865.6
-7407.59
-5864.41
-9176.57
-6450.98
-17379
-14472.5
-29244.4
-21902
-22515.7
-23572.5
-25912.8
-25554.8
-9896.11
-7405.99
-51797.8
-69372.3
-34010.8
-41638.9
-67673.3
-88139.7
-35393.1
-40599.1
-39408.3
-55670.4
-35096.3
-46183.5
-20987.6
-33375.1
-4291.83
-1479.51
-4476.29
-1645.08
-12878.9
-5310.83
-17351.1
-6536.08
-12939.8
-4940.39
-13123.4
-4311.49
-21957.5
-7147.09
-28312
-9757.77
-30880.3
-15915.9
-28605.3
-16973.5
-27715
-17902
-24766.7
-17953.6
-23738.5
-14475.2
-23800.8
-12808.6
-29781
-18595.1
-30001.9
-18694.5
-26419.3
-18835.9
-26825.9
-18801.7
-25652.8
-16358.2
-26613.1
-16718.8
-24823.9
-11359.7
-12412.1
-15851.8
-24737.8
-12502.7
-11080.7
-16310.2
-26338.5
-11212.4
-13830.1
-15830.7
-27734.6
-11464.4
-14906.2
-16437.2
-5501.15
-6026.37
-1919.77
-4035.03
-15745.5
-16631.8
-6479.55
-12221.6
-20065.3
-21685.5
-10779.3
-18633.6
-12157.2
462.08
-16154
-22156.1
-13344.2
997.323
-6074.4
-15034.4
-25760.5
-21345.4
-12194.4
-15906.2
-15416.8
-14638.7
-23697.2
-4899.83
-3720.84
-2921.47
-2781.71
-13444
-10330.5
-8876.65
-8111.09
-16263.1
-12170.3
-11653.6
-9956.66
-4927.43
-6522.8
-11084.7
-11655.9
-16430.4
-14362.9
-19228.1
-15565.5
-15517.3
-12752.6
-9586.69
-8661.76
-13316
-8543.17
-13278.8
-7820.41
-12639.8
-7164.47
-16453
-9854.11
-11374.1
-3247.18
-10402.9
-9474.01
-13183
-15122.7
-14713.2
-19442.3
-9169.16
-8321.73
-10866.3
-1300.64
-9485.43
-15770.8
-9074.21
-17157.3
-14648.3
-24297.7
-14864
-26090
-8152.32
-14677.3
-7631.07
-15885.8
-11751.4
-7380.76
-17119.3
-5960.78
-11216.9
-206.705
-14669.3
571.81
-11561.7
-11539.6
-17972.8
-7715.41
-9963.05
-13751.8
-16300
-10112.2
-2584.34
-2011.79
-1452.53
-1936.32
-1572.18
-1191.98
-7312.13
-4813.68
-3344.36
-5224.89
-3333.71
-2331.39
-7945.75
-5474.58
-4408.65
-6158.98
-3880.96
-3128.42
-4844.94
-3194.65
-2700.29
-9197.78
-5112.62
-3504.27
-10036.7
-5508.31
-3487.48
-10507.6
-6359.83
-4620.91
-8469.32
-4340.44
-2726.95
-12796.5
-8594.7
-5863.12
-9460.38
-6177.75
-3822.74
-9784.55
-5882
-3369.53
-9398.47
-5308.29
-2889.91
-11459.9
-5403.67
-2233.8
-11941.5
-15643.9
-9870.61
-12281.4
-14079.2
-19823
-13021.8
-18012.6
-0.807897
-667.11
473.335
-213.036
-3099.26
-3192.98
-1533.75
-922.142
-1349.61
-2946.06
-10185.1
-14204.9
-6400.95
-4041.63
-11703.2
-11705
-19089.2
-21093.8
237.381
4149.89
-8437.46
-7848.88
-7359.35
-5589.84
-1024.46
-529.083
-816.639
-423.455
-2156.13
-282.167
-181.445
383.05
-9095.72
-2074.35
-6622
-1740.7
-9114.81
-2624.03
-10797.9
-3104.78
-10492.9
-12283.2
-9574.25
-11928.9
-17306.4
-16877.3
-16424.5
-15888.8
-6130.78
-8642.78
-7096.93
-8611.49
-10019.7
-11478.4
-10838.2
-11453
-17110.4
-15575.4
-17819.3
-15504.9
-6092.42
-8330.07
-6437.77
-8336.06
92.1525
-732.233
-5764.18
-2596.56
414.309
-443.953
-5325.25
-2268.6
-236.404
-927.298
-5841.48
-2815.73
-475.137
-1037.33
-5748.97
-2830.56
470.262
534.73
-157.001
16.6238
2122.92
2012.01
123.593
345.423
278.404
1255.94
-1094.12
-468.136
8941.64
9855.27
4367.21
3163.39
480.276
10628.5
9513.78
3187.77
4461.24
808.59
-11262.9
-8249.67
-6356.74
-5010.25
-2182.18
435.247
318.018
63.581
50.1918
1456.41
1114.37
227.079
165.887
1494.58
1469.86
-134.672
-95.7073
4461.58
1317.83
6279.65
3055.19
2266.15
1262.81
2462.52
1696.66
96.209
-213.117
-4193.79
-2455.84
-1586.31
269.699
-1091.96
237.674
-1036.27
-90.6053
-632.899
-535.05
-4996.76
-4012.38
-9058.84
-5152.28
-8298.96
-7306.71
-12317.5
-9181.67
-6210.73
-3336.39
-3189.77
-2703.88
-10565.8
-4542.29
-11464.3
-5020.18
-13648.4
-9451
-14439.9
-10175.1
-7497.18
-2789.41
-8258.36
-3165.92
-3887.13
-2494.73
-1817.98
-2359.27
-2403.97
-2197.74
-1498.04
-2160.29
-4485.92
-2404.07
-2031.39
-2704.55
-5461.99
-2575.62
-2798.16
-2741.96
222.426
175.656
173.345
24.6051
60.4528
59.476
828.597
672.439
583.04
98.8508
179.316
159.718
1191.82
988.162
844.168
-106.109
183.64
211.368
361.232
307.602
81.9377
1455.06
1306.36
1056.92
999.593
969.207
853.885
1265.43
1065.28
896.914
-342.889
65.3308
95.1136
-3283.03
-1716.86
-889.782
-95.8612
400.701
598.227
6.73976
491.107
634.903
-28.8895
402.171
482.251
-671.704
73.5608
149.776
-6.58543
-0.598499
0.878286
3.21005
100.178
35.7329
20.197
11.689
-44.8989
-10.4683
17.7993
20.4326
133.892
50.6215
52.1737
33.8885
-181.727
-44.6
25.9956
41.3546
-52.5315
1.73853
23.7567
21.2317
-92.2383
-10.0847
-1.46976
1.20547
-175.778
-41.6716
5.65392
12.6405
-557.206
-146.881
-37.9986
0.825566
-724.935
-182.874
-62.6212
14.0797
-387.14
-93.778
-9.02003
25.7271
-593.798
-145.06
-61.9937
6.80769
-585.922
-156.911
-24.6318
14.6449
-804.552
-208.144
-66.6971
20.4124
-611.709
-169.943
-20.1651
23.3141
-846.693
-224.452
-71.9103
20.1698
-4.8934
-1.55852
1.67615
5.04801
18.6324
6.44461
-0.549967
4.15206
15.9817
4.59307
12.7893
17.33
81.2901
26.8034
3.2912
12.5607
-225.677
-62.3351
-3.83999
23.0362
-94.9864
-20.3208
-8.51009
19.822
-64.2034
-0.208335
17.4736
29.8591
-9.40131
9.28438
-9.303
19.0446
-501.497
-119.036
-51.4176
22.2066
36.5083
12.8367
4.09601
4.69244
65.656
21.7845
7.07693
3.2137
76.5192
28.8133
5.06459
10.2628
172.448
57.9968
16.6934
7.72956
46.8242
26.0741
2.48827
15.1111
230.491
80.821
23.8797
11.2885
-36.0057
14.1483
-0.239933
20.8463
201.503
84.1081
25.3023
12.6817
-234.299
-28.1092
-26.8635
12.4144
88.0417
65.2273
16.7508
10.3736
-547.725
-100.863
-46.1158
9.70515
-166.699
-10.6135
-3.05723
3.62398
-413.155
-61.845
-39.2029
8.55109
-75.6103
22.4449
6.60046
7.20747
-650.128
-134.304
-53.77
10.2084
-232.407
-35.0967
-8.666
1.65851
-710.698
-158.016
-60.2852
7.91097
-276.884
-52.9145
-13.4862
-0.0333844
1.72994
0.547574
0.171571
0.0553585
0.0220119
2.57085
0.817624
0.264413
0.0872563
0.0351994
4.12356
1.2288
0.382515
0.123686
0.0493282
5.18803
1.68739
0.555622
0.185452
0.0753988
5.2768
1.48955
0.46062
0.149286
0.0597369
6.33404
2.12799
0.708054
0.237967
0.0972531
2.69825
0.965601
0.328486
0.112112
0.0463937
1.91161
0.55501
0.175633
0.0585024
0.0240292
4.3867
1.39134
0.445351
0.146868
0.0594522
1.92388
0.558769
0.173432
0.0565361
0.022787
5.54762
1.70816
0.55043
0.182301
0.0738938
2.08086
0.601863
0.186865
0.0607478
0.0243827
3.04419
0.851374
0.261656
0.085219
0.0344143
1.7804
0.46463
0.141634
0.0463122
0.0187995
2.75243
0.577865
0.150999
0.0455544
0.0177394
1.47514
0.274583
0.0670416
0.0196385
0.00755817
1.47106
0.443117
0.135259
0.0428745
0.0168408
1.28827
0.388216
0.118317
0.0373075
0.0145729
3.87192
1.10592
0.336197
0.107096
0.0422769
3.48528
1.00585
0.305337
0.0967704
0.0380095
4.90008
1.30352
0.389975
0.124057
0.0490639
4.68023
1.32643
0.406422
0.130405
0.0517351
4.88787
1.42821
0.452247
0.148432
0.0598158
3.3617
0.981918
0.307189
0.0998967
0.03998
2.44132
0.753426
0.244224
0.0810727
0.0328987
-31.516
-301.885
142.984
-675.979
642.85
-734.396
1595.14
-273.404
2375.65
1088.24
-335.854
-1227.77
1618.7
1398.96
-1228.79
-2369.48
-1778.46
-2826.91
-1155.26
-288.585
-71.3213
-18.5992
-6.42022
-275.034
-165.591
-25.5008
-8.29917
-4.21944
-3549.93
-881.57
-218.739
-56.8806
-19.7043
-631.17
-214.949
-62.8203
-16.7526
-6.42547
-5921.91
-1475.5
-368.047
-96.3185
-33.4404
-1086.32
-382.91
-108.971
-31.2594
-11.1412
-7857.01
-1968.51
-495.155
-130.685
-45.7242
-1328.81
-497.061
-144.475
-41.6686
-14.8422
-9701.26
-2462.07
-626.741
-167.35
-59.2676
-1565.62
-625.827
-184.917
-53.738
-19.3671
-11284.2
-2970.56
-773.762
-210.782
-76.0098
-2707.47
-910.135
-253.574
-71.0191
-25.3968
-10584.6
-2768.51
-714.765
-192.823
-68.8916
-1997.7
-753.637
-218.215
-62.4562
-22.3687
-11589.4
-3061.45
-801.405
-219.501
-79.5824
-3125.34
-1007.32
-275.438
-75.9964
-27.1001
-12063.8
-3164.56
-830.719
-227.879
-82.7528
-3277.49
-1054.98
-289.764
-75.3397
-28.0055
-921.768
-9091.78
-8291.3
-2966.31
1795.58
3043.35
8326.67
12406.5
1305.94
8848.51
-3228.49
1662.77
2153.3
5156.4
10494.1
15275.6
15947.9
20340.5
6519.65
8531.39
-18688.7
-12656.6
-1933.52
-1052.1
-706.943
-881.206
-1128.01
-10682.4
-8111.05
-7319.09
-6397.75
-4210.93
-3141.53
-4833.92
-2376.43
-1992.74
-2145.07
-1450.46
-17580.9
-7468.66
-1724.34
-3203.23
-5464.43
-3356.08
-3217.12
-2151.58
-1000.7
-1344.32
-1816.32
-2021.9
-18113.6
-10848.7
-10020.7
-6617.58
-5688.8
-6821.45
-1887.62
-2007.16
-3469.98
-11833.8
-8895.85
-6200.53
-4440.54
-2858.7
-7669.8
-4855.71
-3255.65
-2038.44
-847.396
-1626.11
-1270.24
-893.126
-527.271
-174.794
-903.352
-720.29
-514.746
-306.494
-101.637
-604.508
-479.241
-340.171
-201.292
-66.4832
-761.452
-610.903
-438.568
-261.678
-86.7705
-961.101
-759.49
-538.066
-318.319
-105.224
-6179.8
-4109.8
-2679.12
-1899.01
-1505.46
-3948.25
-2497.04
-1460.27
-960.616
-554.65
-4386.94
-2570.25
-1612.72
-954.699
-389.224
-3056.99
-1835.63
-1053.82
-616.967
-289.219
-1849.05
-1049.98
-573.785
-316.934
-126.166
-2352.45
-1645.07
-1055.04
-588.014
-192.813
-3184.23
-2002.17
-1237.16
-686.271
-234.996
-1493.82
-879.644
-508.274
-263.085
-84.2391
-1562.18
-1134.77
-747.565
-421.525
-137.105
-1625
-1141.2
-728.241
-400.092
-128.153
-1152.19
-846.349
-561.427
-316.917
-102.565
-10554.1
-7082.85
-4804.12
-3313.4
-2328.76
-5117.08
-3432.74
-2254.61
-1337.16
-521.206
-1359.72
-996.749
-664.462
-379.729
-125.471
-2562.28
-1909.87
-1295.18
-751.475
-251.498
-4204.62
-3054.24
-2047.33
-1195.44
-416.668
-2693.92
-2018.83
-1378.52
-805.498
-270.925
-2626.49
-1998.07
-1378.95
-808.849
-270.39
-1778.97
-1365.39
-945.743
-553.319
-183.204
-824.915
-628.626
-430.515
-248.476
-81.2051
-1134.17
-886.502
-621.631
-365.039
-120.284
-1470.6
-1102.85
-746.989
-429.476
-140.914
-1666.04
-1273.26
-877.76
-511.338
-168.858
-11314.3
-8170.39
-5692.42
-3932.85
-2527.67
-6989.3
-4602.33
-3091.86
-1912.76
-803.506
-6780.66
-4859.5
-3203.5
-1963.53
-801.185
-4851.23
-3383.02
-2272.25
-1356.28
-495.281
-4441.36
-3273.86
-2221.34
-1307.57
-454.151
-4961.06
-3444.5
-2302.23
-1368.43
-493.263
-1525.66
-1146.91
-782.659
-455.498
-151.838
-1691.17
-1321.18
-927.24
-545.646
-180.201
-2827.54
-2143.24
-1472.78
-860.358
-286.489
-7711.9
-15887.6
-16113
-45048.8
-15336.4
-58169.1
-8544.25
-20842.4
-15483.8
-11942
-26412.4
-21892.1
-14803.6
-13353.1
-28668.6
-22135.8
-5800.08
-4423.31
-11477.9
-8139.45
-12974.9
-9901.03
-35483.2
-26898.4
-20933.6
-15442.2
-22059
-13138.1
-1561.86
-5469.25
-54869.8
-70724.2
-33047.3
-41569.5
-70286.6
-89310.9
-34225.1
-40342.4
-41899
-56977.9
-34295.3
-46304.4
-23711.8
-34747
-2969.5
-820.879
-5270.37
-1825.77
-10075.4
-4674.62
-20491.3
-7540.63
-4600.12
-2689.02
-10899.5
-3534.54
-22276.1
-7150.69
-28732.1
-9881.23
-20489.3
-11267.9
-24642.4
-14657.1
-17433.9
-12816.2
-20703.2
-15534.8
-20974
-12624.6
-16329.9
-9201.61
-28321.2
-17574.5
-29658
-18420.1
-24813.9
-17768.6
-26398
-18513.2
-24745
-15534.6
-26428.8
-16496
-23819.3
-11138.6
-11237.6
-15579.5
-21171.9
-11559.6
-8822.26
-15688.1
-26283.5
-11242.8
-13314.9
-15729.8
-27817
-11506.3
-14775
-16415.7
-1724.29
-1672.83
-501.731
-2270.49
-6978.83
-7514.15
-4689.31
-9881.1
-4754.82
-5802.23
-7734.46
-14820.3
-13024.1
-8842.93
-11982.9
-15978.4
-11861.3
-6455.27
-7968.35
-9601.07
-18529.7
-19266.5
-14071
-13348.7
-10794.6
-10311.4
-21991.1
-1853.52
-1359.92
-1155.11
-1285.3
-6599.29
-5032.15
-6000.86
-5280.79
-1942.36
-323.312
-7384.47
-5824.43
-9169.51
-9534.56
-8940.35
-8250.16
-8707.15
-6265.33
-11842.7
-9104.41
-12968.9
-10012.5
-11738.2
-10514.2
-11060.9
-7018.66
-9230.04
-4959.34
-9176.93
-4766.43
-15203.2
-8490.98
-9811.61
-3437.75
-9196.06
-9102.64
-12874.2
-15658.3
-13832.8
-19090
-8009.17
-7987.21
-9080.21
-1419.29
-8827.95
-15447.3
-8870.02
-17041.8
-14043.4
-23968.3
-14662
-25946.1
-7552.13
-14439.6
-7449.58
-15803.1
-11056.4
-7255.66
-17025.2
-6044.85
-10040.6
-639.726
-14607.9
-374.6
-11217
-11422.1
-17932.3
-7702.85
-9848.63
-13709.4
-16284
-10110.3
-1242.6
-1129.26
-1024.36
-1153.94
-3779.52
-2824.41
-3761.84
-3438.94
374.477
-356.43
-4378.23
-4558.98
-8974.67
-7702.05
-7506.29
-5684.55
-4968.39
-3733.08
-7175.46
-5633.87
-8341.98
-5862.85
-15398.1
-11745.7
-7840.48
-5356.84
-7093.2
-4133.69
-6765.19
-3267.79
-8249.35
-2595.48
-5801.3
-9285.4
-4915.31
-9941.98
-9748.51
-11602
-11244.4
-15149.6
-855.224
-476.92
-410.589
-245.482
-3338.62
-1947.44
-2371.45
-787.087
-688.342
-1314.4
-7986.39
-8270.61
-3625.26
-2993
-10272.9
-11219
-17513.2
-20585.5
744.219
4312.38
-7140.03
-7355.34
-6565.99
-5319.23
-769.068
-612.928
-749.141
-556.512
-1255.12
-532.717
-75.366
74.7256
-6691.69
-2348.2
-5695.65
-1886.54
-8291.17
-2619.6
-10433.7
-3077.08
-5393.26
-9852.44
-7434.31
-10510.1
-9556.32
-12591.5
-13220.6
-13802.7
-4880.42
-7882.84
-4154.65
-7668.35
-8926.07
-10777.9
-10489.6
-11249.5
-15655.4
-14624.4
-17386.9
-15241.1
-5404.53
-7904.76
-6199.06
-8204.47
254.102
-838.593
-5573.54
-2685.67
293.194
-806.359
-5394.6
-2511.14
-66.9067
-970.773
-5678.38
-2843.09
-391.079
-1046.84
-5690.84
-2836.02
-752.339
-763.463
-603.675
-566.081
-1450.05
-1381.87
-671.077
-612.253
-6523.23
-5602.01
-2176.73
-1948.22
-2739.88
-3907.01
-3092.44
556.957
-459.673
-119.957
-694.571
-3348.17
2304.54
84.9871
-14890.2
-11358
-8758.81
-6283.69
-2790.58
-701.827
-552.179
-559.976
-581.086
-1292.74
-959.425
-736.737
-883.631
-5231.57
-4533.28
-1942.09
-2165.01
-4033.17
-5538.12
-2155.51
-3816.12
-3668.94
-3707.48
-333.152
-689.98
-911.248
-1367.65
-9023.71
-6584.22
-6359.69
-4088.01
-4653.48
-2966.93
-3225.55
-2020.41
-1468.77
-1385.95
-6576.02
-5917.28
-9200.29
-5608.27
-9411.3
-9125.56
-12046.1
-9488.25
-6576.5
-3763.66
-4603.14
-4176.85
-10393.1
-4696.15
-11374.1
-5025.26
-13243.6
-9477.42
-14282.6
-10132.5
-7505.97
-2968.59
-8229.58
-3191.11
-4267.69
-2819.55
-2127
-2643.19
-3449.16
-3193.78
-2084.64
-2767.44
-4594.22
-2562.25
-2164.36
-2845.94
-5475.2
-2609.63
-2830.71
-2774.79
-385.112
-337.481
-412.328
-342.097
-842.052
-959.224
-594.871
-522.481
-4006.67
-3423.38
-1360.5
-656.251
-6162.86
-5261.6
-4455.51
-3548.45
-3293.45
-2636.26
-985.105
-988.834
-1277.54
-649.721
-6786.77
-5047.02
-3512.35
-2562.3
-2440.68
-1654.74
-1465.72
-860.117
-1278.57
-85.2683
-68.0346
-24.6371
-8.3508
-0.0653215
-12.261
-9.56127
3.69744
5.89095
-196.649
-69.4804
-1.22102
14.6655
-76.5292
-38.557
20.9068
22.9942
-373.556
-119.504
3.80163
36.726
-269.093
-97.4692
-16.2783
4.97149
-210.681
-68.713
-26.5298
-8.55416
-219.153
-65.53
-4.75472
8.46847
-655.912
-195.151
-59.9198
-9.16808
-786.59
-210.149
-74.1159
11.5466
-583.477
-169.247
-37.0832
15.1642
-695.191
-182.435
-76.59
4.59594
-646.525
-190.145
-38.963
9.33872
-838.945
-225.597
-74.8586
17.9756
-633.877
-182.969
-25.857
21.1733
-857.928
-230.62
-74.8698
19.2857
-71.7033
-23.7081
-5.33277
3.31301
-59.0776
-16.8928
-8.73363
2.20662
-177.765
-58.5318
-6.18421
12.2983
-139.848
-40.2864
-19.5137
6.9118
-423.918
-126.802
-22.6058
19.353
-365.392
-101.815
-36.1509
13.8079
-416.424
-116.14
-18.9003
19.8872
-316.149
-83.5026
-38.3664
15.4594
-681.55
-174.65
-70.3866
22.5029
-41.1284
-11.0325
-3.17887
2.54551
-14.4065
-4.22394
-0.798553
0.294612
-127.375
-33.5568
-15.5405
3.78107
-48.8512
-13.3418
-5.53081
-0.437835
-239.69
-60.5361
-26.2026
6.18375
-105.916
-26.1375
-8.71348
-0.512885
-372.396
-89.4955
-33.6392
11.4895
-196.514
-42.7936
-12.5472
-0.774148
-506.039
-116.662
-58.8762
1.66862
-267.509
-54.125
-20.7934
-3.60612
-688.258
-159.431
-69.5178
1.21284
-294.091
-63.6274
-22.6076
-4.37215
-642.615
-146.489
-70.9215
-2.58805
-307.401
-63.5831
-22.6025
-4.37465
-719.019
-166.186
-67.3278
5.27136
-289.687
-61.9351
-19.1113
-2.58597
-730.006
-167.648
-64.5404
6.33496
-291.385
-60.3425
-16.5255
-1.29421
0.383466
0.000610938
-0.0289387
-0.016022
-0.0083939
0.149331
-0.113466
-0.071054
-0.0317093
-0.015498
1.033
-0.0252401
-0.0764578
-0.0397903
-0.0203948
-0.0541943
-0.346514
-0.181799
-0.0772775
-0.0369497
1.54531
-0.0436122
-0.100998
-0.0509365
-0.0257542
-0.638098
-0.54549
-0.25901
-0.10677
-0.0503432
-0.765551
-0.35698
-0.152522
-0.0603723
-0.0278048
0.205955
-0.106033
-0.0670047
-0.0290658
-0.0138117
0.165742
-0.210497
-0.132821
-0.0590412
-0.028643
0.348323
-0.0467902
-0.046005
-0.0217571
-0.0107409
0.056675
-0.329457
-0.174878
-0.0742637
-0.0355085
0.334515
-0.0514873
-0.0466881
-0.0219508
-0.0108735
0.686393
-0.0607512
-0.0710442
-0.0340544
-0.0168333
0.460982
-0.0436003
-0.0432291
-0.0199626
-0.00970672
1.72166
0.172081
0.00153652
-0.00838146
-0.0055439
1.04904
0.10598
0.00490906
-0.00279323
-0.00213145
0.479892
0.030592
-0.0150589
-0.0102858
-0.00569425
0.245146
0.00792474
-0.0138203
-0.00851588
-0.00467711
1.11865
0.0152662
-0.0545504
-0.030417
-0.0159802
0.607596
-0.0213003
-0.0494718
-0.0262216
-0.0137273
1.86512
0.0502422
-0.0639968
-0.0365164
-0.0191609
0.621126
-0.104937
-0.087723
-0.0413477
-0.0207321
0.23299
-0.241793
-0.131784
-0.0563791
-0.0271204
0.0253223
-0.15573
-0.0826852
-0.0355566
-0.0172419
-0.266911
-0.184567
-0.0816755
-0.0331623
-0.015628
137.134
-160.917
501.827
-362.331
988.135
-412.301
1715.36
-127.362
2219.09
879.24
-346.733
-1306.02
1406.26
954.483
-1196.98
-2364.5
-1762.89
-2817.89
-1133.03
-286.976
-71.4301
-18.6945
-6.45747
-258.988
-162.645
-25.2878
-8.29378
-4.23195
-3495.28
-878.206
-219.291
-57.2088
-19.8266
-603.002
-212.491
-62.654
-16.7656
-6.4372
-5854.44
-1472.59
-369.284
-96.8987
-33.646
-1071.06
-383.038
-109.291
-31.3589
-11.1696
-7812.05
-1969.75
-497.32
-131.477
-45.9849
-1359.75
-503.631
-145.695
-41.8857
-14.8863
-9718.23
-2472.05
-630.297
-168.377
-59.5766
-1655.23
-639.489
-187.03
-54.0744
-19.4301
-11368.3
-2989.58
-778.129
-211.78
-76.2678
-2743.34
-917.75
-254.932
-71.2531
-25.4385
-10666.4
-2786.68
-719.283
-193.934
-69.1976
-2088.53
-767.675
-220.371
-62.79
-22.4267
-11649.7
-3075.36
-804.505
-220.188
-79.7536
-3134.7
-1010.18
-276.017
-76.108
-27.1224
-12086.2
-3169.69
-831.86
-228.13
-82.8156
-3278.69
-1055.62
-289.918
-75.3641
-28.0124
-668.193
-8825.96
-7521.26
-2277.48
-1727.25
-770.501
-3970.66
-2444.92
-7809.05
-7144.61
-3842.14
-2744.44
-31.9691
-60.295
-127.1
-254.028
-474.615
-829.097
-26.237
-69.547
-172.487
-364.526
-678.382
-1131.72
-21.7148
-9.37959
-45.104
-27.681
-101.183
-74.9546
-209.709
-177.299
-379.864
-330.195
-654.774
-523.176
-1308.92
-1872.8
-2566.9
-4848.7
-6418.68
-7669.39
-1693.19
-2261.29
-2688.01
-2917.22
-2969.38
-2948.1
-28.313
-23.3892
-17.2871
-10.5486
-3.5392
-53.2637
-43.8634
-32.3149
-19.6673
-6.58923
-111.944
-91.8552
-67.4234
-40.9162
-13.6869
-222.891
-182.073
-133.049
-80.464
-26.8671
-414.295
-336.408
-244.418
-147.187
-49.0406
-718.392
-578.537
-417.156
-249.882
-83.0574
-23.1999
-19.1286
-14.1101
-8.59632
-2.88163
-61.3154
-50.3744
-37.0226
-22.4899
-7.52707
-151.601
-124.09
-90.8639
-55.0391
-18.393
-319.116
-259.993
-189.515
-114.403
-38.1642
-590.815
-478.518
-346.855
-208.536
-69.4289
-979.076
-787.14
-566.747
-339.179
-112.697
-19.2577
-15.9352
-11.7982
-7.20934
-2.42069
-8.32441
-6.89462
-5.10964
-3.12471
-1.04963
-39.9128
-32.9377
-24.3179
-14.8256
-4.97171
-24.5245
-20.2688
-14.9876
-9.14856
-3.06998
-89.298
-73.452
-54.0477
-32.8621
-11.004
-66.2402
-54.5759
-40.2256
-24.4901
-8.20627
-184.41
-151.029
-110.642
-67.0405
-22.4069
-156.106
-128.036
-93.9305
-56.9739
-19.0523
-332.388
-270.632
-197.12
-118.913
-39.653
-289.373
-236.005
-172.154
-103.953
-34.6787
-568.482
-458.731
-331.289
-198.613
-66.0299
-455.185
-368.068
-266.221
-159.716
-53.1024
-1122.02
-893.381
-637.924
-379.801
-125.983
-1579.5
-1237.74
-872.868
-516.368
-171.26
-2111.11
-1617.74
-1123.39
-661.176
-220.604
-3826.96
-2844.14
-1942.76
-1145.48
-392.524
-4749.28
-3395.29
-2286.79
-1367.52
-500.22
-5434.84
-3795.97
-2536.52
-1533.79
-586.895
-1452.22
-1156.9
-826.481
-492.211
-163.268
-1917.38
-1510.06
-1069.02
-633.567
-210.016
-2242.9
-1740.37
-1219.02
-719.367
-238.914
-2374.45
-1804.68
-1247.85
-734.641
-246.186
-2316.11
-1706.56
-1161.89
-686.317
-236.457
-2213.47
-1588.16
-1067.94
-634.119
-224.872
-32.3047
-61.5684
-130.222
-260.915
-488.686
-853.317
-26.6609
-71.191
-176.478
-372.64
-692.171
-1150.74
-21.981
-9.55633
-46.2127
-28.5632
-104.282
-78.0201
-217.618
-186.534
-399.255
-360.778
-691.751
-591.451
-1342.76
-1914.86
-2614.24
-4866.73
-6400.45
-7654.27
-1714.05
-2279.15
-2699.35
-2917.49
-2960.22
-2942.54
-28.6214
-23.6559
-17.4939
-10.6799
-3.58422
-54.4346
-44.8764
-33.1008
-20.1663
-6.76037
-114.817
-94.3432
-69.3547
-42.1427
-14.1077
-229.239
-187.578
-137.328
-83.184
-27.8006
-427.298
-347.713
-253.223
-152.79
-50.9649
-740.977
-598.359
-432.722
-259.847
-86.4907
-23.5898
-19.4661
-14.372
-8.76266
-2.9387
-62.8295
-51.6869
-38.0428
-23.1385
-7.74971
-155.287
-127.296
-93.3625
-56.6308
-18.94
-326.644
-266.572
-194.666
-117.695
-39.2973
-603.713
-489.888
-355.829
-214.304
-71.4204
-997.152
-803.338
-579.715
-347.601
-115.621
-19.5015
-16.1452
-11.9605
-7.31203
-2.45585
-8.48576
-7.03307
-5.21617
-3.1919
-1.0726
-40.9279
-33.8115
-24.9925
-15.2521
-5.11772
-25.3287
-20.9574
-15.5164
-9.4816
-3.18372
-92.133
-75.89
-55.9273
-34.0494
-11.4101
-69.0296
-56.9592
-42.0511
-25.6373
-8.59761
-191.647
-157.251
-115.438
-70.0686
-23.4425
-164.514
-135.223
-99.4372
-60.4348
-20.233
-350.084
-285.795
-208.761
-126.239
-42.1539
-316.969
-259.338
-189.83
-114.963
-38.4167
-602.417
-487.98
-353.859
-212.869
-70.9056
-516.695
-419.965
-305.442
-184.094
-61.3673
-1154.18
-922.131
-660.862
-394.651
-131.131
-1620.69
-1275.57
-903.703
-536.629
-178.348
-2159.99
-1664.55
-1162.71
-687.552
-229.968
-3857.85
-2882.15
-1979.78
-1172.74
-402.901
-4750.19
-3408.59
-2305.46
-1383.94
-507.4
-5429.33
-3797
-2541.18
-1538.91
-589.401
-1472.66
-1175.75
-841.945
-502.425
-166.847
-1935.95
-1528.11
-1084.42
-644.009
-213.727
-2256.46
-1754.89
-1232.21
-728.661
-242.293
-2378.95
-1812.14
-1256.06
-741.051
-248.667
-2312.08
-1706.44
-1164.06
-688.875
-237.668
-2210.28
-1586.82
-1067.84
-634.561
-225.175
-18614.2
-12621.7
-2003.05
-1117.39
-850.608
-1010.86
-1243.09
-11099.8
-10838.8
-8339.78
-9186.57
-4076.35
-6909.85
-2816.21
-3035.98
-1992.41
-17746.6
-7953.93
-2115.95
-3575.89
-5767.86
-3525.42
-3373.86
-2336.62
-1250.62
-1584.95
-2292.46
-2298.34
-17898.4
-10794.6
-10167.3
-6672.34
-5809.89
-6968.9
-2095.51
-2187.24
-3683.22
-11795.8
-8882.11
-6206.09
-4458.56
-2877.64
-7660.16
-4859.56
-3265.63
-2048.98
-852.265
-1693.81
-1332.01
-943.119
-559.938
-186.189
-963.751
-772.76
-555.502
-332.356
-110.506
-734.013
-588.516
-422.725
-252.587
-83.875
-878.402
-709.715
-513.349
-308.212
-102.558
-1067.26
-851.322
-609.021
-363.128
-120.544
-7106.11
-5090.44
-3513.48
-2496
-1841.94
-7072.98
-5276.03
-3653.37
-2439.29
-1188.47
-5551.18
-3629.17
-2442.11
-1480.35
-564.119
-6062.69
-4389.07
-3010.75
-1896.33
-778.666
-3234.84
-2410.52
-1642.75
-955.774
-317.704
-5066.91
-3534.87
-2369.21
-1378.47
-468.492
-2310.26
-1765.13
-1221.04
-714.209
-236.192
-2479.25
-1886.68
-1301.17
-759.846
-251.224
-1655.31
-1278.07
-890.204
-522.071
-172.361
-11082.1
-7711.51
-5385.01
-3749.47
-2565.51
-5677.18
-3974.01
-2698.82
-1629.68
-627.509
-1725.49
-1313.66
-908.2
-532.828
-177.736
-2920.92
-2229.97
-1547.73
-913.195
-307.457
-4535.11
-3374.28
-2313.87
-1372.56
-480.141
-2866.29
-2180.11
-1510.59
-892.356
-301.522
-2781.22
-2140.28
-1494.39
-884.434
-296.872
-1954.71
-1521.38
-1068.74
-632.113
-210.399
-1055.34
-826.948
-582.656
-344.008
-113.798
-1353.18
-1073.15
-763.901
-454.032
-150.581
-1906.79
-1475.15
-1030.25
-606.211
-201.017
-1924.12
-1498.3
-1052.41
-621.919
-206.77
-11234.6
-8168.16
-5739.63
-4002.03
-2596.53
-6996.01
-4638.62
-3138.37
-1953.16
-821.155
-7074.35
-5178.61
-3496.93
-2175.78
-887.686
-4948.03
-3498.51
-2380.54
-1434.46
-524.619
-4586.11
-3423.69
-2352.54
-1398.03
-487.471
-5157.46
-3649.5
-2483.09
-1494.02
-540.466
-1723.66
-1322.79
-921.292
-544.291
-182.521
-1858.8
-1467.44
-1041.08
-617.928
-205.001
-3036.64
-2333.78
-1626.03
-959.912
-321.184
-186.578
-559.86
-961.334
-1411.33
-1896.63
-2394.16
-3512.46
-9269.38
-8390.29
-3272.09
-11516.7
-10014.6
-10865.6
-11869.1
-3291.61
-2114.41
-7746
-4130.97
-13612.6
-10677.6
561.719
-2790.69
-7535.8
-6661.82
-2555.12
-9484.21
-7805.9
-8758.26
-9535.78
-2721.69
-1144.89
-6757.2
-1880.51
-10584
-6412.94
2750.88
-1938.67
-5410.21
-4679.73
-1743.77
-7031.23
-4084.65
-6537.51
-6755.82
-1978.33
-1074.6
-4605.38
-2073.31
-7729.05
-1867.6
2933.22
-1298.02
-3826.46
-3267.45
-1180.18
-4825.01
-1859.51
-4821.35
-5140.23
-1391.35
-1155.01
-3214.07
-2170.15
-6141.23
136.476
2195.41
-941.551
-2935.78
-2482.36
-876.565
-3367.74
-1219.28
-3837.49
-4511.3
-1005.57
-1307.92
-2081.11
-2141.64
-4982.59
373.088
416.134
-755.28
-2350.01
-2060.59
-714.267
-2827.59
-1573.69
-3208.85
-4043.79
-699.688
-1035.34
-1472.94
-2019.09
-4912.81
-954.657
-755.615
-1437.32
-3474.59
-5717.16
-2245.5
-5460.75
-9463.14
-8099.99
-11363
-872.571
-461.933
-3496.73
-1623.28
-878.78
-8233.56
-3520.76
-1297.79
-3138.44
-4847.04
-1886.96
-4860.47
-8200.15
-7008.3
-9188.39
-863.1
-329.652
-3518.15
-1344.41
-22.6048
-7630.29
-2102.5
-1065.27
-2577.97
-3674.72
-1407.36
-4122.51
-6585.87
-5511.24
-7285.39
-699.403
-361.031
-2728.04
-1297.98
-208.531
-5349.52
-1728.5
-815.733
-2084.79
-2690.67
-1009.74
-3425.95
-5187.94
-4368.3
-5821.62
-557.904
-344.883
-2223.93
-1235.43
-130
-4322.07
-1538.01
-651.16
-1683.39
-2108.45
-777.874
-2721.12
-4194.65
-3552.24
-4998.31
-454.276
-392.674
-1753.1
-1291.43
-281.678
-3692.49
-1568.66
-545.892
-1342.5
-1770.14
-644.86
-2280.43
-3945.04
-2985.95
-4512.83
-430.111
-455.355
-1408.53
-1201.27
-533.253
-3720.42
-1858.66
7937.94
10044.8
20315.1
30118.2
30850.7
52916.5
23256.1
58678.3
18618
40769.4
27864.4
42548.4
24669.7
32976.4
9399.91
10791.5
20474.4
23462
25807.7
25714
19881.5
24041.7
28968.4
25862
6833.07
5453.23
8350.21
5886.56
17381.8
14439.1
29314.4
21939.2
22483.3
23576.9
25901.4
25554.9
9892.84
7375.79
51804.9
69381.2
34011.5
41641.5
67681.4
88149.5
35392.9
40600.4
39413.8
55678.5
35095.5
46187.2
20995.8
33382.6
4043.95
1418.85
4110.43
1527.68
12840
5290.07
17362.1
6538.81
12931.3
4935.47
13105
4304.16
21958.8
7147.08
28316.1
9759.12
30879.5
15914.5
28603
16971.8
27711.7
17899.3
24763.5
17951.1
23734.8
14473.3
23799.3
12807
29780.2
18593.7
30001.7
18693.3
26417.5
18834
26824.8
18800
25652
16357
26613.5
16717.9
24818.3
11357.8
12410.2
15851.5
24733.4
12500.8
11078.5
16309.7
26338.1
11212.4
13829.3
15830.8
27736.2
11465.1
14905.8
16437.5
5174
5602.38
1846.27
3792.36
15669.5
16569.8
6441.1
12164.1
20052.9
21672
10773.2
18622.8
12156.8
-461.244
16152.3
22150.8
13341.8
-996.375
6074.38
15033.1
25754.4
21341.5
12192.7
15904.9
15414.8
14635.5
23696.1
4447.13
3335.81
2610.98
2526.42
13501.9
10381
8979.78
8176.76
16252.3
12167.1
11648.9
9955.22
4927.45
6522.54
11084.1
11655.2
16428.5
14361.4
19222.5
15562.7
15515.3
12752.2
9585.76
8661.19
13314.9
8542.6
13277.2
7819.58
12637.5
7163.46
16452.6
9854.19
11373.1
3246.85
10401.6
9473.49
13181.5
15121.6
14711.4
19441
9168.16
8321.46
10865.2
1300.37
9484.33
15770.4
9073.14
17156.8
14646.7
24296.3
14862.4
26088.6
8151.54
14677.2
7630.34
15885.7
11750.9
7380.73
17119.7
5961
11215.9
206.534
14669.4
-571.603
11561.5
11539.7
17973.4
7715.67
9962.83
13752
16300.5
10112.6
2260.79
1783.9
1314.6
1749.65
1436.54
1105.91
7371.9
4838.89
3349.46
5281.45
3358.41
2335.75
7947.41
5477.02
4410.27
6159.99
3883.87
3130.85
4844.82
3194.72
2700.41
9197.46
5112.76
3504.52
10036.3
5508.59
3487.92
10507.5
6361.04
4622.14
8469.66
4341.7
2728.29
12796
8594.6
5863.27
9460.04
6177.7
3822.88
9784.25
5882.07
3369.8
9398.29
5308.55
2890.34
11460
5403.97
2234.24
11912.5
15625.6
9838.62
12265.4
14065.8
19812.7
13005.3
18003.3
49.5605
582.685
-384.271
168.291
3095.78
3262.27
1530.02
996.045
1321.43
2918.26
10166.8
14182.5
6383.19
4027.27
11695
11701.3
19084.4
21091.5
-243.924
-4151.94
8426.86
7843.88
7353.24
5587.45
903.178
482.453
710.684
379.585
2204.61
291.954
234.317
-369.902
9083.97
2073.03
6614.17
1740.5
9107.22
2622.22
10793.8
3103.5
10481.7
12277.4
9565.42
11924.2
17298.6
16872.7
16418.4
15885
6122.83
8638.43
7087.29
8606.36
10014.3
11475.1
10835.1
11450.6
17106.4
15572.6
17816.8
15502.7
6087.41
8326.91
6435.05
8333.86
-96.338
731.633
5761.09
2595.42
-418.929
443.34
5321.92
2267.49
233.181
926.469
5839.03
2814.66
473.398
1036.73
5747.23
2829.71
-448.167
-504.794
143.313
-19.7992
-2101.7
-1993
-119.571
-338.547
-277.34
-1254.6
1094.01
468.356
-8941.46
-9854.26
-4367.48
-3163.6
-480.171
-10627.1
-9512.3
-3187.64
-4459.93
-808.173
11260.4
8246.14
6353.29
5007.51
2181.19
-416.125
-301.86
-69.1559
-54.5062
-1440.65
-1103.97
-216.62
-157.996
-1493.2
-1468.4
134.936
95.8666
-4461.3
-1317.85
-6279.27
-3055.13
-2266.45
-1262.92
-2462.01
-1696.11
-96.1803
213.054
4192.62
2455.35
1584.74
-270.177
1090.58
-238.051
1035.36
90.3857
632.491
534.772
4994.25
4011.13
9056.15
5150.87
8296.87
7305.52
12315.2
9180.27
6208.33
3335.19
3187.6
2702.79
10563.6
4541.03
11462.5
5019.11
13646.3
9449.68
14438.1
10173.9
7495.16
2788.37
8256.71
3165.05
3885.41
2493.77
1817.06
2358.44
2402.39
2196.84
1497.21
2159.5
4484.45
2403.17
2030.54
2703.71
5460.71
2574.86
2797.37
2741.22
-212.515
-164.581
-161.536
-29.4581
-59.7318
-57.6687
-820.622
-668.706
-580.911
-92.4602
-176.427
-158.093
-1190.7
-987.407
-843.7
105.929
-183.488
-211.261
-361.231
-307.548
-81.8944
-1455.08
-1306.29
-1056.85
-999.545
-969.085
-853.779
-1264.97
-1064.89
-896.635
342.707
-65.3146
-95.071
3282.65
1716.79
889.826
95.6061
-400.705
-598.157
-6.92173
-491.058
-634.804
28.8226
-402.068
-482.132
671.43
-73.5756
-149.751
7.41388
1.10183
-0.552946
-2.82276
-93.379
-33.1347
-18.8221
-10.8585
45.5704
10.6882
-17.7811
-20.4615