/*--------------------------------*- C++ -*----------------------------------*\
  =========                 |
  \\      /  F ield         | OpenFOAM: The Open Source CFD Toolbox
   \\    /   O peration     | Website:  https://openfoam.org
    \\  /    A nd           | Version:  11
     \\/     M anipulation  |
\*---------------------------------------------------------------------------*/
FoamFile
{
    format      ascii;
    class       volScalarField;
    location    "0.6";
    object      gradTy;
}
// * * * * * * * * * * * * * * * * * * * * * * * * * * * * * * * * * * * * * //

dimensions      [0 -1 0 1 0 0 0];

internalField   nonuniform List<scalar> 
5712
(
14338.1
8272.98
22825.3
15166.4
25030.2
18718.6
38270
48830.1
50759.9
63555.4
33312.8
29338.1
21115.6
17030.1
10764.3
7320.14
22773.3
22241.1
20052.8
22927
30521.4
26016.7
36467.8
28145.6
9855
6921.37
5637.01
4318.53
11395.8
9330.2
7136.56
6053.29
22871.9
22794
22189.1
17247.6
16459.2
13669.8
13247.4
15359.2
21146.4
21356.7
46488.9
48468.4
31402.3
32800.5
19983.2
16833.7
20542.3
14324.4
9628.74
10175.8
8828.32
14208.7
4669.34
6181.61
11939.2
18632.6
7294.47
9149.21
12647.7
24679.6
8980.39
16204.4
3303.28
9502.95
2764.78
7066.12
19052.7
23779.4
20571.9
24213.4
22627.4
22373.4
23973.5
22594.8
18412.2
25507.1
18141.2
24761.9
20668.4
24366.5
20881.7
24473.8
24739.1
22611.1
24930.7
22534.5
17280.1
25867
16843.1
26106
23609.2
30129.7
29806.9
45538.8
25030.6
35586.6
29495.8
50365.7
22413.9
26188.5
29961.5
43422.5
22269.2
24405.2
30379.1
43061.7
8861
12075.2
23059.9
42266.4
10565.4
12391.7
28755.7
46514.3
12457.8
12656.6
35132.3
49443.3
27030.5
26228
25459.8
27112.8
44714.7
25786
26541.1
25590.6
24048.1
52455.7
23747.9
25254.5
24749
28091.8
58255.7
3078.01
3726.28
6873.54
17609
4235.87
4929.96
8971.42
18660.1
5926.53
4977.83
11550.3
19937.1
24044.5
21345.3
23431
20489.3
22718
18263.3
18389.8
14921.5
14425.3
21992.8
22517.9
19781.7
24473
22058.6
23324.7
20188.7
21360.4
18140.4
15033.1
21329.5
25042.6
27316.7
25172
28359.3
22656.3
22445.9
22387.1
23113.5
24699.7
24637
24499.7
23814.2
25044.1
28629.2
25048
28752.8
21868.6
23656.8
21791
23731.6
24735.5
24530.8
24815.7
24588.6
22437.3
21100.9
14971.1
17467.9
22445.6
20726.3
14832.2
17950.8
22617.1
20908.9
15267.9
17363.4
22690.3
20658.7
15735.8
17305.6
2147.78
1148.36
646.815
1100.08
538.521
452.635
3069.66
1329.98
802.583
2019.16
1291.23
877.596
3101.96
1774.64
1434.89
3392.82
2164.29
1631.92
17140.8
12232.6
9347.33
16871.5
12486.1
9754.23
12937.3
9495.43
7603.71
10002.9
6571.96
5022.08
5264.02
2848.78
1953.23
16227
11771.5
8869.22
18076.2
12834
9567.53
14674
9540.44
6870.42
10465.7
6150.8
4351.92
5515.48
2750.63
1737.77
29139.2
27398.8
32741.3
28189.1
34156.1
28403.9
42763.6
30893
21152.6
20052.1
21187.3
18504.3
23988.2
21186.5
24020.2
19323.3
23633.6
22775.8
21698.8
22491.6
26954.1
25005.3
30401.8
31284.7
34414.2
36096.3
24345.8
25699.6
21891.7
21492.6
25444.6
26372
14694.3
7388.07
13980.5
8223.03
15093.2
7439.02
14079.3
8140.49
15111.6
7444.77
14328.4
8529.63
14116.8
8943.72
14378.7
8786.37
20780.5
16699
21317.4
17023.6
23867.7
20666.4
24920.4
20897.1
20038.3
13268.9
20298.6
12831.5
22263.2
17132.2
22749.6
16963.5
26156.6
20988.8
26427.6
20796.6
20210.8
13427.4
20284.1
13325.8
12096.6
7322.71
9739.71
5950.5
10924.2
6442.26
9184.06
5511.15
12579.5
7822.25
9961.29
6135.09
12636.8
8062.92
9900.82
6136.39
2116.29
1016.51
3752.5
2033.8
2218.05
1203.67
3952.58
2358.6
2677.39
1784.73
4334.49
3000.54
11004.6
18497.1
7604.34
7087.91
4917.74
17492.1
11161.6
5975.81
5939.17
3928
19050.9
14018.3
10458.9
7646.11
4721.66
476.538
252.718
1190.95
822.654
628.708
313.306
1530.6
1088.72
1075.24
601.407
2112.6
1532.96
16769.7
14419.3
10270.3
8505.01
6003.62
5056.19
4830.73
3533.61
3140.36
2270.05
16328.2
13228.5
11592.9
8733.38
8284.97
6060.27
5870.81
4208.94
3901.1
3116.21
12531.6
8591.57
12945.2
8773.39
16390.1
12243.1
16775.6
12640.4
9871
6608.44
9341.93
6339.4
13143.7
8838.37
13081.8
8837.56
16913.1
13166.7
16810.1
13189.1
10179.9
6647.27
10144.5
6705.97
7048.43
4763.33
4620.69
3871.26
6648.53
4479.26
4390.18
3562.87
7402.91
4917.33
4747.88
4084.41
7538.19
4907.42
4922.93
4122.72
419.788
309.657
222.464
1878.22
812.402
568.572
411.205
351.473
270.85
2128.57
999.274
726.734
645.579
605.509
531.096
2524.81
1326.96
1006.43
11136.7
8181.1
6480.69
6508.67
4872.71
3980.92
4019.07
3033.52
2538.22
2839.26
2110.53
1724.04
3114.65
1746.8
1323.27
9975.82
7032.89
5326.16
6246.38
4327.02
3321.58
4315.32
2942.31
2270.31
3394.7
2252.7
1687.09
4036.7
2030.85
1470.76
3379.99
1528.33
687.938
291.01
3830.03
1680.24
735.196
304.643
3391.92
1527.49
689.044
291.562
3900.63
1717.55
760.341
317.416
3383.84
1512.54
710.984
307.554
3982.09
1738.1
804.303
343.918
4279.75
1834.11
788.09
323.681
4343.74
1879.32
787.23
320.342
3566.85
1611.73
753.845
322.442
2939.62
1405.7
683.614
298.203
3131.63
1453.97
708.613
314.472
2726.61
1326.85
657.668
291.345
3842.56
1721.11
774.66
323.193
3056.56
1457.45
695.64
301.163
3966.98
1781.9
787.974
328.517
3092.83
1487.4
707.269
308.283
2501.98
1281.33
622.013
275.083
1690.48
1009.77
542.409
250.969
2510.25
1277.43
623.607
276.203
1762.61
1027.98
547.757
253.036
2582.44
1283.5
638.258
284.717
1974.56
1083.89
566.915
259.583
2564.11
1257.22
634.088
291.935
2165.5
1127.07
594.296
268.58
2431.97
1227.76
625.26
285.598
1051.14
812.234
428.055
119.972
522.656
713.107
385.893
113.61
1168.04
850.529
442.588
126.704
633.154
752.714
398.073
116.926
1406.11
921.627
461.925
128.125
843.694
823.452
415.428
119.776
1723.62
1012.13
497.012
140.296
1109.45
909.089
441.907
126.806
1980.63
1101.85
541.016
161.013
1274.86
985.281
467.345
133.307
2186.09
1204.82
559.931
158.03
1341.53
1084.81
512.839
144.604
2108.71
1162.67
548.737
157.015
1265.58
1042.17
490.738
138.582
2222.01
1228.95
558.542
149.655
1362.79
1113.66
522.031
145.412
2262.13
1247.72
566.702
151.175
1413.58
1133.93
531.268
147.696
126.822
58.1868
24.9222
9.72098
2.50336
128.109
58.4787
25.0141
9.75054
2.51015
128.593
59.042
25.195
9.80465
2.5221
131.678
59.5616
25.3559
9.85789
2.53455
133.337
60.1296
25.5131
9.90251
2.54421
136.836
60.6417
25.7095
9.97306
2.56119
136.442
61.6866
26.1412
10.1224
2.59652
138.416
62.884
26.6434
10.3031
2.64022
137.88
61.3999
25.9434
10.0433
2.57683
141.601
62.2959
26.1894
10.1149
2.59265
137.788
60.8942
25.7307
9.9684
2.55901
141.091
61.7764
25.9765
10.0413
2.57524
138.334
62.2745
26.3144
10.1737
2.60787
143.988
63.117
26.5098
10.2276
2.61962
141.556
63.4701
26.7793
10.3392
2.64791
147.307
64.1938
26.9041
10.3669
2.65335
126.578
57.974
24.8373
9.69264
2.49684
127.56
57.9016
24.7866
9.67488
2.49275
128.428
58.6666
25.0529
9.75739
2.51115
129.289
58.4697
24.9609
9.72674
2.50414
132.472
59.7858
25.3729
9.85302
2.53244
133.103
59.5124
25.26
9.81537
2.52373
136.981
60.8402
25.6666
9.94141
2.55225
137.444
60.6006
25.5769
9.91171
2.54536
140.694
61.3815
25.8287
9.99198
2.56374
18041.1
28139.8
18427.8
28035.5
18860.9
27683.2
18732.3
26971.7
17217.3
25002.4
15135.4
17284.6
15403.5
18622
15107.4
16908.8
15358
17027.6
16528
2892.12
641.679
151.807
28.4626
18365.4
5365.01
1350.16
322.596
60.4765
16428
2834.07
626.603
148.13
27.7565
18196.9
5276.75
1327.73
316.702
59.0357
16109.6
2759.02
608.926
144.142
27.0594
17794.8
5146.28
1295.78
309.538
57.8315
15424.5
2604.21
574.274
136.581
25.7576
17023.4
4919.39
1242.76
298.234
55.9261
14167.1
2343.99
519.995
125.029
23.7707
15671.5
4566.72
1164.69
282.023
53.2196
12074.3
2096.1
486.051
120.236
23.2376
12298.2
3813.42
1011.42
252.236
48.5549
12721.3
2164.51
493.465
120.675
23.1613
13328
4100.09
1071.11
263.323
50.1694
11804.7
2073.6
484.53
120.54
23.3746
11904.6
3680.55
981.113
246.565
47.7722
11735
2054.61
480.418
119.754
23.2315
11859.9
3648.39
972.197
245.386
47.5637
38608.8
57676
55868.9
37003.2
20322.9
21649.5
30279.6
32258.6
24745.7
28459.4
40701.9
57366
52068.1
70730.9
33327
38785.7
25469.8
27705.1
13538.9
15042.5
4053.21
2348.04
189.919
102.034
109.478
87.1681
141.443
3497.41
2888.65
1566.33
1901.88
1470.2
565.31
949.532
667.69
377.96
450.185
320.074
3297.17
1286.07
511.267
435.241
717.599
578.349
372.396
294.798
206.56
166.812
317.781
277.777
3675.98
1853.05
2233.99
1111.83
769.832
1358.92
367.312
198.305
431.984
7566.03
6375.86
5318.08
4806.21
6582.4
4749.37
4553.68
4066.34
3751.15
3849.52
468.016
597.408
649.427
659.198
656.949
255.856
335.767
374.624
387.497
389.645
275.005
361.698
403.986
417.759
419.763
219.75
290.815
326.978
340.036
342.772
352.463
457.686
505.093
517.81
518.123
6751.53
5901.66
4811.51
4137.23
5545.21
5571.77
4755.58
3772.52
3178.93
3251.59
3294.67
3304.56
2953.95
2643.93
2567.3
3705.91
3269.64
2621.39
2180.21
2011.11
2856.57
2550.36
2058.04
1688.91
1517.2
1299.42
1486.66
1462.72
1379.69
1327.54
2070.06
2184.93
2015.13
1821.18
1726.21
1483.34
1611.03
1515.53
1377.8
1295.02
895.242
1071.91
1095.33
1058.9
1027.94
1045.31
1213.86
1207.03
1142.47
1095.95
766.304
932.329
965.205
940.543
915.383
6478.91
5835.74
4884.63
4315.1
5806.06
2791.91
2947.33
2751.54
2543.62
2504.74
1194.72
1402.4
1412.09
1356.67
1319.94
1029.8
1233.25
1265.32
1233.27
1208.46
1638.64
1862.37
1834.2
1746.04
1707.3
1352.26
1591.63
1612.22
1562.64
1533.09
893.106
1093.24
1145.55
1134.97
1120.92
715.308
890.262
944.361
941.137
929.611
507.944
645.04
695.624
699.639
692.565
413.44
531.974
581.449
591.266
588.889
764.164
937.083
979.167
963.319
944.357
674.002
838.639
888.791
884.294
872.155
7016.15
6113.04
5144.07
4632.61
6298.58
3859.7
3863.68
3537.98
3295.01
3342.04
4753.05
4725.31
4181.3
3821.32
4108.8
2476.21
2723.78
2636.57
2506.26
2481.47
1769.34
2032.54
2023.97
1947.15
1914.83
2957.81
3142.54
2956.92
2756.68
2733.54
881.11
1078.25
1128.39
1115.86
1100.29
488.005
621.107
672.551
679.95
675.811
1025.36
1234.33
1273.02
1246.43
1224.5
22847.8
15518.6
23298.9
17088.3
29304
44586.1
31083.3
44692.2
23562.5
24235.4
20623.5
23966.6
25510.6
23377.9
34478.9
26755.6
18530
18764.8
9088.81
8347.26
19950.1
19497.9
10316.4
8938.07
25437.2
26843.2
25019.8
21971
26524.4
17371
13379
15484.9
21611.5
21527.4
46952.6
48768.8
31076.6
32786.6
21390.5
17184.8
22204.6
14677.4
10968.6
10538
21225
24503.4
8786.19
9973.95
22925.5
27551
10800.7
12428.1
21069.4
31724.4
12123.2
19921.9
4065.32
10835.1
2929.7
7341.66
21107.4
23579.7
21195.5
24166.3
21433.5
21222.5
23201
22006
20707
26102.6
23641.1
25671.7
20880.8
24361.4
20927.8
24473.2
24406.3
22335.8
24846.2
22452.6
18163.4
26190.1
17051.2
26204.7
25667
32707.4
30910.7
46951.8
28219.8
39583.9
31232.7
52596.4
23456.8
27523.1
30557.1
44210.5
22568.8
24798.8
30562.1
43316.6
29389.7
31374.6
38886
59415.1
28942.9
29053.4
41364.4
59757.6
27529.9
26500.1
43972.6
58266.7
21113.8
20211.1
24786.6
29361.5
49352.4
19100
19142.8
25917.8
26034.9
57440.2
19917.4
22486.9
24557.8
30066.6
61255.4
14212.2
12134.2
15129.5
21360.4
15726.9
13490.1
15559.2
21670.9
17619.4
14172.2
16086.6
21734.3
17623.8
15554.2
17730.5
15846.6
23014.7
19670.7
20351.5
17121.3
16632.9
22353.2
18873.9
17214.2
21613.9
20275.8
22769.8
20142.7
22729.2
19343.5
16176.4
21229.2
23975.9
26146.6
24757.6
27799.5
21038.8
21024.5
21665.3
22414.1
24790.4
24580
24482.7
23642.2
24868.9
28387.6
25000.4
28686.1
21548.2
23326.8
21698.9
23637
24793.9
24524.9
24831.1
24587.4
22899.4
21384.8
15417.8
17793
23204.6
21187.7
15605.6
18381.8
22859.8
21068.7
15505.7
17559.3
22766.7
20710.4
15816.8
17371.6
10513.6
10730.5
4986.82
4392.64
11779.7
11132.9
5596.87
5175.99
11321
10000.6
6267.1
5812.96
13934.6
12463.6
14741.7
13864.9
16165.4
14512.4
13404.4
10980.5
7602.94
5753.6
15644
13676.3
18366.4
16084.3
16192.8
13469.9
12819
9746.86
6830.11
4381.46
23138.2
21054.1
30391.1
25163.8
27497.9
23338.7
40384.3
28576.4
20213.1
15262.1
23016.6
16669.9
19960.6
15634.2
23138.6
17090.2
21335.3
17791.2
18864.1
16614.4
19593.1
21986.3
29003.5
30888.5
33512.2
35879.9
23065.5
25305.5
20541.8
21115.5
23696.7
25787.4
11351.2
7512.75
12160
7865.3
11724.4
7482.91
12491.9
7797.44
11841.6
7421.65
12800.8
8133.94
13152.2
8597.2
14032.5
8655.68
16615.9
15276.6
19271.7
16131
20277.9
18724.8
23112.3
19842.3
17856.4
12702
16105
12153.7
21265.2
16655.3
22458.1
16817
25352.4
20472.2
26208.9
20643.6
19075.8
13084.6
19933.6
13215.9
11320.8
7229.24
9533.63
5972.15
10279.6
6741.45
9164.43
5751.11
12069.9
7672.93
9790.96
6106.53
12471.1
8000.76
9841.41
6123.03
10217.4
9437.76
6718.75
5835.57
10399.8
9633.95
6612.8
5800.72
10422.1
9357.43
6477.94
5818.69
13642.6
17353.1
13436.1
9129.85
6202.33
15749.1
13787.7
14061.6
8826.39
5820.7
17622.1
14309.2
11566.6
8827.21
5504.8
8580.36
7715.43
5241.62
4882.13
8676.07
7715.29
5259.92
4890.56
8272.6
7231.21
5191.2
4648.34
14773.3
12686.3
12274.5
10459.4
11344.8
10139.1
8010.95
7151.07
5142.99
4467.8
15035.6
12378.3
12230
9634.52
9844.8
7840.68
7504.35
6083.19
4851.64
4226.46
12192.8
8760.97
12549.5
8681.84
15360.2
11686.9
16133.9
12258.8
9733.43
6711.87
9529.3
6912.77
12893.2
8735.93
13000.2
8798.53
16585.8
12948.8
16711.3
13121.8
10036
6627.49
10091
6688.65
7105.75
4966.61
4738.26
4069.75
7089.35
5157.36
4771.6
4123.98
7363.53
4952.2
4769.62
4149.49
7516.74
4908.31
4923.82
4135.51
7614.55
7172.12
8233.11
7024.78
7594.69
7121.75
7943
6720.38
6891.98
6577.88
7368.49
6206.31
11017.1
9747.28
8910.51
7881.18
8907.97
8229.29
6716.29
6010.46
6768.5
5484.78
10082.4
8566.82
7633.7
6609.69
6455.99
5835.79
5648.6
4928.23
6317.5
4686.53
3880.39
1801.24
806.552
337.989
4076.97
1880.25
834.844
346.654
3835.21
1777.57
796.457
333.563
4078.03
1880.88
844.403
353.693
3752.91
1728.61
806.658
345.633
4097.79
1863.74
873.831
375.305
4304.64
1902.12
829.561
342.917
4344.08
1900.68
800.671
326.763
3697.92
1713.97
809.837
348.197
3037.38
1479.23
724.026
317.288
3443.8
1627.33
791.68
350.022
2942.23
1457.1
718.8
317.343
3883.64
1773.32
806.517
338.493
3094.93
1494.28
718.549
312.837
3973.93
1797.67
798.261
333.618
3102.46
1498.51
714.659
312.156
3517.15
1667.79
769.882
330.065
3029.58
1494.16
720.011
313.854
3448.27
1640.24
761.923
327.236
2993.01
1480.98
714.225
312.136
3365.46
1598.61
761.84
330.887
2990.75
1469.17
711.691
310.904
3134.18
1512.63
738.676
332.286
2921.38
1441.79
715.801
311.173
2829.24
1428.05
709.829
318.276
2473.22
1338.72
600.567
157.957
1793.69
1248.27
566.585
156.227
2489.19
1341.49
605.416
163.709
1832.93
1251.21
568.262
157.407
2531.83
1341.52
601.811
159.3
1897.71
1251.48
563.306
155.016
2515.11
1334.04
613.455
167.559
1885.78
1243.94
563.505
156.57
2420.43
1313.79
628.58
184.383
1709.38
1218.45
559.617
156.945
2277.54
1272.86
598.446
169.637
1421.24
1161.47
551.484
155.735
2318.8
1287.27
609.143
173.891
1466.98
1183.2
553.065
155.448
2257
1261.96
579.427
156.061
1388.23
1149.35
542.059
151.417
2270.24
1257.43
573.204
153.211
1418.21
1144.01
537.306
149.548
146.355
66.1401
27.9319
10.775
2.7571
145.671
65.9157
27.8781
10.7615
2.75427
146.206
66.1947
27.9115
10.7587
2.75213
146.837
65.9605
27.8281
10.7333
2.74633
149.127
66.3635
27.8772
10.7341
2.74501
149.529
65.8775
27.7343
10.6919
2.73535
144.77
65.2279
27.528
10.6184
2.71712
141.397
64.1923
27.1618
10.4898
2.68574
149.117
66.0787
27.7402
10.6802
2.73118
151.653
66.3799
27.751
10.6686
2.72695
152.464
66.5553
27.866
10.7195
2.74048
154.471
66.7896
27.8624
10.7053
2.73584
145.46
65.3936
27.5338
10.6097
2.71397
150.253
65.8044
27.5566
10.6022
2.71087
143.956
64.5267
27.1978
10.49
2.68472
149.403
65.1101
27.2654
10.4971
2.68517
149.378
66.5846
28.0048
10.7896
2.75987
154.635
67.0482
28.0606
10.799
2.76155
149.74
66.6585
28.0002
10.7804
2.75678
154.867
67.0958
28.0586
10.7928
2.75938
151.72
66.8475
27.9818
10.7615
2.75102
155.962
67.2127
28.0426
10.7774
2.75459
154.42
67.0447
27.9573
10.7412
2.74501
157.462
67.2261
27.996
10.7531
2.74788
156.913
67.026
27.9247
10.7261
2.74095
20069.3
27090.7
20048.5
26942.4
19986.5
26607.5
19260.3
25865.1
17527.7
24089.8
15405
17514.5
15777.5
18781.7
15269.7
17069.5
15411.2
17080.9
16656.9
2885.31
641.164
152.367
28.6594
17890.7
5305.72
1346.32
323.595
60.8784
16489.7
2823.27
625.772
148.636
27.9414
17704
5214.62
1323.39
317.587
59.4135
16080.4
2743.65
607.863
144.599
27.2304
17297.3
5083.22
1291.29
310.34
58.1823
15345.1
2590.44
573.797
137.078
25.9196
16579.4
4865.98
1239.64
299.122
56.2625
14154
2342.68
521.185
125.659
23.9275
15389.4
4539.15
1164.94
283.211
53.5586
12196.4
2112.99
489.334
120.972
23.3718
12417.4
3842.26
1018.27
253.869
48.8594
12836.9
2178.85
496.472
121.453
23.3167
13382.3
4114.06
1076.11
264.903
50.5102
11889.9
2085.93
486.924
121.056
23.4654
11996.7
3704.07
986.483
247.758
47.9832
11764.9
2058.96
481.262
119.934
23.2627
11892.8
3656.97
974.142
245.812
47.6377
38268.9
57761.6
55763.6
35845.7
26513.2
33268.4
25327.3
33070.6
31461.4
53753.9
33883.9
55375.3
3.6963
5.45438
9.71245
18.1968
34.361
64.5168
5.12391
7.39915
12.8121
23.2844
42.2731
75.4195
2.7708
2.3512
4.31024
3.86908
8.14687
7.77113
16.0449
16.1756
31.1777
32.2853
57.8526
57.2848
120.116
218.833
389.267
673.788
1048.82
1328.84
131.15
220.01
352.835
531.053
722.413
851.363
9.58943
13.3284
15.7913
17.1608
17.7387
14.1047
19.4947
22.9564
24.8174
25.5756
25.0085
34.3114
40.0833
43.0397
44.1815
46.6211
63.4205
73.4185
78.2336
79.96
87.4818
117.749
134.808
142.345
144.744
162.88
216.188
244.015
254.749
257.448
13.2554
18.3343
21.608
23.377
24.1018
19.0711
26.2122
30.6833
33.0045
33.9152
32.8623
44.7929
51.9694
55.4846
56.7728
59.3934
80.2011
92.1381
97.5717
99.3796
107.127
143.081
162.532
170.554
172.844
189.599
249.901
280.124
290.9
293.172
7.20512
10.055
11.9658
13.053
13.5222
6.12257
8.56507
10.2198
11.1739
11.5908
11.1724
15.5054
18.3404
19.9026
20.5554
10.0419
13.9678
16.562
18.0099
18.6226
21.0303
28.9795
34.0137
36.6663
37.723
20.0857
27.7375
32.6306
35.2425
36.2972
41.2214
56.3396
65.5457
70.1299
71.8404
41.6054
56.9748
66.4161
71.1735
72.9722
79.6246
107.73
123.991
131.471
133.99
82.5497
111.896
129.013
136.973
139.687
146.629
195.859
222.435
233.301
236.335
145.518
195.062
222.249
233.635
236.928
299.719
390.304
432.403
445.055
446.501
537.374
682.262
738.289
747.317
744.033
935.059
1147.75
1206.27
1198.29
1185.02
1568.94
1839.7
1865.34
1816.31
1790.71
2349.56
2607.63
2545.7
2436.66
2412.12
2910.78
3127.71
2988.12
2833.89
2816.1
326.428
423.326
467.104
479.353
480.211
540.874
687.759
745.099
754.738
751.553
854.353
1061.07
1125.86
1124.89
1114.14
1263
1526.69
1584.1
1561.82
1541.14
1686.87
1985.15
2018.19
1968.52
1940.07
1966.09
2276.98
2287.96
2218.95
2186.95
3.71572
5.52504
9.87817
18.5537
35.0929
65.9234
5.14835
7.48411
12.995
23.6341
42.8839
76.3725
2.78732
2.3667
4.37413
3.93257
8.31223
7.95137
16.4468
16.6691
32.1134
33.5123
60.0406
60.7302
122.325
221.193
390.341
671.084
1043.22
1325.89
132.372
221.103
353.122
529.933
720.468
850.382
9.64289
13.4104
15.8987
17.2876
17.8761
14.2993
19.793
23.3474
25.2789
26.0753
25.4652
35.0119
41.0014
44.1229
45.3542
47.6061
64.9343
75.4051
80.5788
82.4989
89.5107
120.884
138.94
147.233
150.041
166.813
222.334
252.177
264.453
267.988
13.3232
18.4394
21.7472
23.5425
24.2817
19.3072
26.5791
31.1701
33.584
34.5454
33.3726
45.59
53.0311
56.7519
58.1527
60.3754
81.7484
94.2134
100.06
102.095
108.862
145.858
166.303
175.11
177.833
192.366
254.453
286.433
298.621
301.68
7.25036
10.1238
12.0552
13.158
13.6356
6.16487
8.62903
10.3026
11.2707
11.6952
11.3471
15.7704
18.6845
20.3058
20.9904
10.2148
14.2285
16.8984
18.4025
19.0452
21.482
29.6631
34.8989
37.7015
38.8385
20.5753
28.4728
33.5755
36.3412
37.4774
42.318
57.9961
67.6855
72.6267
74.5269
42.9423
58.9723
68.9697
74.1299
76.14
82.1807
111.596
128.984
137.295
140.252
85.8771
116.872
135.373
144.331
147.568
152.595
204.843
233.98
246.699
250.704
154.735
208.545
239.109
252.81
257.277
306.071
400.589
446.432
462.016
465.072
544.796
695.553
757.684
771.717
771.257
940.424
1160.87
1228.45
1228.31
1219.63
1566.4
1845.42
1882.29
1843.64
1824.5
2340.25
2604.74
2552.5
2452.91
2434.73
2905.51
3124.85
2989.11
2838.76
2823.66
330.153
429.809
476.447
491.059
493.253
544.686
695.313
756.852
770.092
768.985
856.664
1067.8
1138.07
1142.02
1134.17
1262.21
1530.2
1593.62
1576.95
1559.72
1683.89
1985.3
2023.17
1978.18
1952.71
1964.42
2276.46
2289.29
2222.13
2191.32
4034.76
2339.86
195.216
105.958
121.547
93.9182
150.035
3344.58
2851.73
1583.03
2004.73
624.267
1028.66
430.903
522.535
368.273
3191.36
1286.77
546.782
455.898
734.127
587.455
376.826
307.437
238.222
187.433
350.749
298.135
3624.01
1835.84
2188.87
1102.34
769.289
1347.83
376.484
210.376
445.647
7535.21
6358.15
5314.83
4817.65
6614.93
4734.93
4544.99
4065.79
3758.81
3863.63
483.301
622.156
682.998
699.513
700.918
266.677
352.306
396.114
412.608
416.663
306.81
407.114
459.429
479.638
484.763
237.744
316.977
359.47
376.773
381.627
375.887
492.852
549.98
569.527
573.338
6673.56
6201.04
5371.81
4872.93
6521.27
5812.21
5498.82
4849.2
4447.68
4636.01
3425.67
3630.53
3447.66
3249.86
3233.57
4319.83
4360.34
3948.26
3655.42
3552.4
1469.67
1754.36
1807.53
1774.91
1747.38
2322.21
2610.38
2575.55
2468.31
2414.47
1041.18
1290.7
1369.45
1368.42
1354.63
1250.94
1528.73
1601.83
1586.8
1564.46
898.738
1130.51
1213.76
1221.74
1212.61
6353.22
5894.29
5112.57
4665.93
6326.27
2837.68
3088.98
2987.15
2849.82
2852.74
1298.78
1570.33
1634.2
1616.36
1598.85
1091.52
1335.66
1404.21
1398.66
1387.85
1699.45
1981.39
2008.85
1962.28
1946.58
1385.27
1656.73
1709.78
1685.68
1670.42
908.485
1123.03
1190.46
1192.19
1185.1
751.767
948.941
1023.08
1034.65
1030.96
591.516
764.396
840.964
861.359
862.181
467.966
610.148
677.092
698.098
701.146
855.268
1075.09
1154.7
1164
1157.55
730.833
926.217
1002.17
1015.7
1012.76
6935.28
6077.71
5155.28
4689.91
6425.44
3830.98
3851.04
3547.03
3325.21
3388.18
4692.82
4737.68
4272.89
3980.73
4329.15
2464.73
2732.83
2672.25
2566.12
2557.12
1778.74
2067.38
2088.14
2036.15
2018.68
2961.31
3207.06
3088.79
2943.52
2955.16
909.517
1127.63
1198.06
1201.19
1194.19
521.443
672.298
738.764
756.812
758.153
1067.6
1307.2
1374.78
1369.96
1359.82
1902.41
1938.37
1982.93
1934.43
1628.39
693.659
22613
22760.3
24573.4
25793.5
21232.4
21823.7
22813.2
21315.4
19515.7
27862
19886.5
28028.2
22742.2
19974.6
35070.1
21065.7
21018.4
22493.6
23362.1
19315.3
19925.5
21184.9
20075.7
19070.2
33626.3
19295
32578.5
22682
25251.7
37432.4
19050.8
18836.7
19668.4
20177.9
17508.1
18731.6
18856
18449.3
21402.1
28192.6
22053.6
27707.6
24225.6
27848.8
32106.3
16930.9
16747.9
16685.6
16961.7
15939.8
17402.5
16116.1
16091.7
18845.5
23218.5
19421.1
22057.9
20669.2
23206.7
25621.6
14887.6
14747.4
14393.4
14549.5
14631.6
16152.5
14011.3
14184.8
16775.2
17464.1
17351.8
16155.6
17540.7
17335.2
19024.7
13789.7
13717
12767.1
12872.2
13472.6
14460
12568.9
12644.5
15143.9
13641.8
15407.7
12858.5
15173.5
13466.3
15730.5
22172.5
20915.8
24473.8
26235.6
19635.4
19047.8
22048.9
20350.4
18102.1
11799.1
17883.2
11856
15447.3
13679.4
15406.3
20108.2
19179.7
21741.5
22946.4
18318.5
17979.7
20056.1
18634.7
15743.4
10426.1
15579.8
10524.4
13127.1
11224.6
12995.9
17203.4
16624.7
18254.3
18902.9
16063.3
15738.9
17318.3
16356.3
13549.3
9126.47
13160.2
8942.91
11287.5
9012.95
11478.8
13964
13613.7
15035.8
15384
13195
12807.7
14597.8
13805.9
11028.7
7957.08
10782
7832.22
9369.5
7962.85
10060.4
11733.4
11493.3
12828.6
13043.7
11010.5
10648.7
12608.2
12010.6
9389.41
7588.4
9204.36
7526.86
8283.78
7586.18
9217.39
10097.1
9897.45
11346.2
11506.8
9592.14
9523.23
11130.5
10778.6
8394.85
7315.25
8303.15
7318.83
7614.46
7452.52
8875.65
14123.9
8015.35
22813.4
15173
25055.1
18699.6
38302.5
48844.2
50820.3
63583.1
33374
29336.4
21127
17065.1
10459.6
6992.53
22775.4
22242.8
20049.1
22927.1
30536
26022.6
36476.3
28149.9
9656.89
6773.98
5447.98
4185.85
11358.6
9317.14
7132.47
6071
22864
22786.3
22186.1
17247.1
16453
13673.2
13247.8
15360.7
21147.8
21358.5
46496.6
48473.9
31405.8
32803
19984
16835.6
20543.8
14326
9629.95
10177.2
8668.32
13998.3
4544.6
6035.03
11942.7
18651.7
7315.02
9174.42
12649.8
24689.3
8989.17
16216.1
3305.17
9507.48
2765.42
7067.84
19053.3
23780.2
20573
24214.3
22630.1
22374.7
23975.8
22595.8
18414.3
25508.4
18141
24762.9
20669.5
24367.5
20882.7
24474.7
24740.8
22611.8
24931.7
22534.9
17281.6
25868.3
16844.3
26107.5
23611.8
30135.3
29809.2
45542.4
25032.6
35592.6
29498.2
50370
22416.2
26192.4
29963.7
43425.7
22271.5
24408.4
30381.3
43064.8
8736.91
11956.7
22793.4
41985.6
10573.3
12396.3
28779.9
46545.1
12461.5
12659.6
35143.2
49455
27029.9
26228.4
25458.8
27114.4
44721.1
25786
26540.2
25588.7
24048.8
52462.5
23748.5
25254.6
24749.3
28094
58261.1
3026.36
3690.27
6743.17
17463.1
4241.89
4936.98
8991.02
18677.4
5929.45
4979.25
11556.5
19940.6
24044.1
21344.8
23430.1
20488.6
22716.5
18262.4
18390.8
14922.4
14428.4
21994.9
22517.9
19781.3
24472.8
22058.3
23324.9
20188.9
21361.9
18141.5
15034.9
21330.9
25042.9
27316.5
25172.4
28359.3
22656.5
22445.6
22387.3
23113.2
24700.5
24637.5
24500.4
23814.7
25044.5
28629.2
25048.3
28752.7
21868.7
23656.5
21790.9
23731.3
24736.3
24531.2
24816.4
24589
22438.4
21101.8
14972.2
17468.9
22446.9
20727.3
14833.5
17952
22618.2
20909.6
15268.8
17364.2
22691.3
20659.5
15736.7
17306.4
2124
1132.61
635.901
1099.09
534.577
447.738
3082.14
1335.82
804.032
2029.13
1296.43
879.326
3102.26
1775.14
1435.47
3393.54
2165.53
1633.02
17140.4
12232.6
9347.57
16871.4
12486.5
9754.79
12937.5
9496.15
7604.52
10003.5
6572.74
5022.94
5264.58
2849.45
1953.83
16226.7
11771.5
8869.43
18076
12834.2
9567.98
14674.2
9540.87
6870.98
10466.3
6151.31
4352.48
5515.96
2751.03
1738.1
29143.7
27399.8
32744.3
28190.1
34171.9
28409.8
42777.4
30898.1
20957.2
19989.9
20951.1
18428.1
23951.5
21154.4
23980.2
19292.2
23627.1
22769.9
21698.3
22489.1
26934.6
24988
30402.5
31284.7
34417.9
36098.3
24343.3
25698.2
21890.4
21491.2
25435.9
26367.7
14694.8
7393.49
13974.1
8230.17
15072.8
7433.45
14061.7
8135.89
15097.9
7439.54
14316.4
8524.19
14109.9
8939.53
14375
8783.73
20778.2
16698.3
21315.8
17022.9
23869.6
20667.1
24922.2
20897.4
20032
13267.3
20290.5
12829.5
22262.2
17131.6
22748.8
16962.8
26157.8
20988.9
26428
20796.4
20206.9
13426
20281.6
13324.6
12092.8
7319.83
9737.64
5948.96
10920.2
6439.43
9181.69
5509.47
12576.7
7819.8
9959.58
6133.77
12634.7
8061.04
9899.41
6135.28
2107.81
1006.8
3742.61
2022.4
2217.89
1204.15
3951.89
2358.93
2676.15
1784.28
4332.57
2999.66
11005.2
18498.1
7603.76
7085.99
4915.94
17492.8
11161.8
5975.6
5937.72
3926.75
19051.4
14018
10457.5
7644.19
4720.19
468.503
245.27
1180.47
815.557
629.319
313.116
1530.68
1088.46
1075.21
601.557
2112.23
1532.85
16769.7
14419
10269.9
8504.54
6003.13
5055.65
4829.8
3533.1
3139.58
2269.65
16328.3
13228.3
11592.6
8732.98
8284.08
6059.66
5869.68
4208.29
3900.1
3115.55
12531.1
8591.1
12944.7
8772.94
16390.2
12242.9
16775.7
12640.3
9870.04
6607.77
9340.87
6338.69
13143.2
8837.93
13081.2
8837.09
16913
13166.4
16809.8
13188.8
10179.1
6646.68
10143.7
6705.39
7047.32
4762.64
4619.74
3870.49
6647.29
4478.53
4389.13
3562.1
7401.95
4916.7
4747.04
4083.69
7537.31
4906.84
4922.18
4122.08
411.79
304.142
218.545
1865.97
804.098
561.652
410.35
351.143
270.84
2127.61
999.218
726.777
645.686
605.557
531.119
2524.51
1326.92
1006.44
11136.4
8180.98
6480.67
6508.28
4872.46
3980.76
4018.58
3033.21
2538.02
2838.9
2110.3
1723.87
3114.1
1746.61
1323.17
9975.52
7032.73
5326.12
6246.03
4326.79
3321.44
4314.89
2942.05
2270.14
3394.21
2252.43
1686.92
4035.82
2030.55
1470.59
3380.46
1528.08
687.59
290.811
3829.78
1679.26
734.63
304.391
3390.71
1527.11
688.89
291.509
3899.68
1717.25
760.216
317.366
3382.42
1512.09
710.8
307.482
3980.56
1737.63
804.113
343.842
4278.22
1833.6
787.895
323.604
4342.54
1878.86
787.05
320.268
3565.63
1611.24
753.637
322.357
2938.78
1405.28
683.415
298.116
3130.48
1453.51
708.411
314.388
2725.76
1326.43
657.47
291.259
3841.39
1720.63
774.454
323.109
3055.79
1457.06
695.449
301.078
3966
1781.47
787.786
328.438
3092.16
1487.05
707.094
308.203
2501.08
1281.21
621.862
274.951
1688.37
1009.23
542.262
250.939
2509.52
1277.11
623.47
276.151
1762.19
1027.76
547.657
252.992
2581.53
1283.12
638.093
284.65
1973.97
1083.59
566.776
259.522
2563.23
1256.83
633.902
291.852
2164.8
1126.73
594.13
268.506
2431.2
1227.38
625.07
285.51
1049.7
811.762
428.011
120.013
521.6
712.282
385.619
113.541
1167.77
850.378
442.493
126.67
632.941
752.636
398.023
116.911
1405.74
921.394
461.81
128.092
843.49
823.26
415.333
119.748
1723.12
1011.83
496.869
140.256
1109.17
908.829
441.781
126.77
1980.05
1101.5
540.848
160.964
1274.53
984.979
467.199
133.265
2185.55
1204.47
559.762
157.983
1341.24
1084.5
512.679
144.558
2108.12
1162.31
548.566
156.967
1265.27
1041.85
490.58
138.537
2221.52
1228.63
558.384
149.613
1362.54
1113.36
521.88
145.369
2261.7
1247.43
566.558
151.136
1413.35
1133.67
531.131
147.657
126.723
58.145
24.9081
9.71655
2.50236
127.984
58.424
24.9956
9.74466
2.50881
128.577
59.033
25.1909
9.80311
2.52171
131.659
59.5521
25.3516
9.85626
2.53414
133.31
60.1178
25.5082
9.90064
2.54374
136.808
60.6297
25.7044
9.9711
2.56069
136.41
61.6726
26.1354
10.1202
2.59596
138.384
62.8698
26.6374
10.3009
2.63964
137.845
61.3857
25.9376
10.0411
2.57628
141.559
62.2798
26.183
10.1126
2.59206
137.753
60.8806
25.7252
9.96633
2.55849
141.049
61.7609
25.9704
10.039
2.57467
138.298
62.2592
26.3082
10.1713
2.60728
143.946
63.1003
26.5032
10.2251
2.61901
141.521
63.4549
26.7731
10.3369
2.64731
147.267
64.1778
26.8977
10.3645
2.65274
126.485
57.9385
24.8256
9.68903
2.49603
127.486
57.871
24.7765
9.67177
2.49205
128.412
58.6584
25.0492
9.75598
2.5108
129.275
58.4624
24.9575
9.72546
2.50381
132.445
59.7744
25.3681
9.85122
2.53199
133.076
59.5016
25.2555
9.81366
2.5233
136.945
60.8264
25.6611
9.93936
2.55174
137.408
60.5872
25.5716
9.90972
2.54486
140.654
61.3667
25.8228
9.98981
2.5632
17967.7
28058.6
18432.2
28039.6
18863.6
27685.1
18734
26973
17218.5
25003.5
15136.3
17285.5
15404.4
18623
15108.2
16909.6
15358.8
17028.4
16520.2
2874.49
636.769
150.594
28.2331
18349.3
5356
1347.13
321.787
60.3149
16423.4
2835.35
626.852
148.172
27.7621
18194.2
5275.67
1327.31
316.569
59.0079
16108.6
2759.18
608.953
144.139
27.0575
17794.2
5145.94
1295.63
309.483
57.8186
15424.6
2604.24
574.274
136.576
25.7559
17023.6
4919.34
1242.71
298.211
55.92
14167.5
2344.05
520.001
125.028
23.77
15672
4566.79
1164.69
282.015
53.217
12074.9
2096.18
486.067
120.239
23.238
12298.8
3813.56
1011.45
252.242
48.5554
12721.8
2164.58
493.478
120.677
23.1614
13328.6