/*--------------------------------*- C++ -*----------------------------------*\
  =========                 |
  \\      /  F ield         | OpenFOAM: The Open Source CFD Toolbox
   \\    /   O peration     | Website:  https://openfoam.org
    \\  /    A nd           | Version:  11
     \\/     M anipulation  |
\*---------------------------------------------------------------------------*/
FoamFile
{
    format      ascii;
    class       volScalarField;
    location    "0.6";
    object      gradTz;
}
// * * * * * * * * * * * * * * * * * * * * * * * * * * * * * * * * * * * * * //

dimensions      [0 -1 0 1 0 0 0];

internalField   nonuniform List<scalar> 
5712
(
9763.56
31875.2
7854.23
32602.2
5750.72
33227.4
8762.34
49586
10711.8
67724.2
10829.8
50318.1
10638.9
42317.3
11082.3
38127.2
6655.11
4293.05
17958.7
10807.1
6343.51
3410.59
18915.9
9289.9
7670.57
5919.19
24435.6
18132.5
5803.71
4539.35
23972
18320.7
13702.9
5896.61
11942.6
5459.04
5811.42
13196.2
44521.1
11767.7
15994.4
4912.72
55628.6
14662.4
14331.3
4338.94
32816
9997.2
16805.8
5562.56
29422.9
9215.59
10742.9
5325.12
13722.3
5530.86
11656.5
6253.49
13281
5300.88
14112.5
8192.22
11376.2
5174.62
15962
5931.88
5367.65
1932.04
17626
12464.5
10424.9
7611.1
17519.2
14245.6
9313.92
7768.27
10749.9
7560.85
16190.6
11351.1
6493.26
4690.31
2805.43
2263.57
5644.13
4688.94
2362.71
2308.24
6791.26
4548.54
3075.27
1937.07
10238.8
5807.54
8101.01
9756.54
14749.1
10756
12324.6
17068.4
6430.08
3205.55
4540.68
5429.94
2893.93
1283.46
1714.93
1894.85
15354.9
27038.3
10180.4
30019.8
17525.1
26153.5
12312.8
30971
19255.7
23161.1
15407.8
29500
18170.4
18833.8
16069.4
16203.9
17499.5
18688
20191.9
22507.8
24727.9
35360.9
15363.6
13967.6
13696.5
15985.6
24362.1
31515.9
28150.3
36332.4
35058.1
28751.8
26582.2
35547.6
34025
24560.3
23966.3
32864.5
32375.3
13800.6
11048.5
15529.9
14019.3
18528.6
17543.5
21399.3
21283.2
29448.5
30720.8
12690.7
11521.6
14226.1
15024.3
16281.5
18718.5
19325.7
22977.8
25409.1
30520.4
11297.3
8703.2
7271.65
8619.19
13241.8
14822.2
8718.33
12925.2
6979.01
8408.38
11002.5
8983.7
1864.62
5433.73
495.865
1622.77
4148.72
8295.21
1088.29
2525.24
1361.5
5124.22
285.941
1512.32
7410.53
7126.01
8803.97
5610.43
12201.4
9809.1
14738.6
10419.5
2159.67
3767.98
4339
2542.29
1947.98
2412.58
2812.22
2058.76
22592.2
13742.5
4414.41
25408.8
14650.8
4800.01
21649.4
13547.2
4641.07
24766.2
14577.9
4778.3
19691.6
12366.2
4084.52
23805.7
14430.1
4797.55
7903.65
4805.92
1494.94
11669.3
7751.94
2624.58
15185.8
10255.5
3500
18499.9
12006.5
3985.56
23288.8
14577.3
4995.18
8887.67
5516.85
1942.79
11807.9
8534.23
3241.16
15115.2
10962.6
4059.91
18952.5
13190
4741.44
23618.6
14912.7
5302.02
239.774
2015.2
2767.73
4086.44
2621.88
2836.43
6412.73
5922.8
560.41
831.109
597.115
862.853
365.679
1150.57
718.344
1527.58
2680.63
1359.82
3626.47
2171.02
1782.92
2966.3
3225.33
-65.1088
6943.16
930.016
-3035.53
-745.567
1052.92
164.545
201.295
-358.366
7893.71
3023.99
2095.07
1106.26
8052.59
3103.61
2640.8
1367.28
8042.59
3286.17
3630.67
2061.45
2282.72
1308.06
283.576
372.928
12942.4
11011.3
5800.31
5747.09
15504.2
14036.6
7407.03
7113.99
4496.15
4424.95
9990.46
7828.49
3046.27
3176.12
1125.64
1569.85
4183.74
4034.57
1718.83
1994.76
2189.35
2463.64
665.019
1289.16
3468.12
1864.89
3262.29
1730.38
5842.79
2603.45
5142.19
2530.6
1671.88
1147.88
1860.95
982.435
414.085
426.989
964.079
427.95
8861.75
5032.53
3678.69
3090.21
8937.94
5359.41
3670.39
3092.06
9626.32
6048.98
3729.53
3102.78
14176.2
17098.1
11507.1
6682.39
2848.47
15935.5
13008.2
10599.5
7533.17
3569.84
14854.6
11916.5
8395.55
5506.11
2527.8
3277.76
2244.81
2540.71
2214.78
3685.87
2451.74
2686.95
2316.03
4421.9
2961.42
2926.12
2515.87
11778.9
8289.68
9510.87
6314.43
6434.57
4700.71
5012.22
3681.53
2879.29
2689.48
9855.1
8414.44
7617.93
6281.91
5573.98
4603.13
3985.72
3421.37
2191.03
2529.91
6781.48
4518.44
4303.76
2689.03
9965.24
7447.18
6602.58
5315.06
3014.11
1816.56
4575.56
3173.79
3952.58
1871.23
1056.23
543.288
4707.35
3404.97
1205.95
1011.28
2983.89
1278.06
856.214
383.162
1943.48
1560.92
1157.07
1486.76
2873.99
2318
1526.35
1889.43
1952.92
1064
825.038
1001.27
364.379
129.44
-208.968
26.4476
1355.1
564.068
161.61
1327.98
377.127
100.508
1533.17
673.917
202.495
1415.99
424.257
117.77
1785.12
832.708
232.134
1551.95
488.013
125.88
5377.84
3028.73
871.531
3834.33
2006.47
578.788
2903.07
1455.78
431.746
2198.71
1036.2
274.921
1687.19
530.772
115.275
6260.08
3416.47
1083.05
4519.9
2301.05
698.792
3290.56
1628.63
489.915
2398.61
1081.83
301.729
1843.4
521.743
136.319
956.06
283.228
69.4394
3.10088
394.756
119.968
32.2792
4.78839
988.097
297.084
78.5983
10.4855
469.631
147.182
55.4214
19.9667
1024.81
312.241
98.7214
26.0561
708.213
233.141
56.0293
8.56679
401.265
150.601
9.44157
-14.5124
213.215
102.367
27.7546
7.98036
734.936
241.211
51.3993
-11.8832
574.704
182.869
60.6586
-3.1819
950.685
292.711
85.5955
10.2271
793.393
239.839
80.6486
-5.5229
484.543
172.579
40.1014
-3.96879
370.429
126.52
46.893
5.39056
229.532
95.9215
31.985
11.3534
170.171
68.4789
30.345
11.1498
1170.56
344.388
86.6096
-2.69653
1062.93
310.887
107.726
-1.88244
1155.98
340.773
86.742
-3.05483
1031.71
300.066
106.508
-2.69774
1116.07
329.349
100.928
8.57
972.546
280.071
112.108
4.44397
942.067
283.568
106.389
30.1862
1055.93
301.89
139.079
8.48475
794.349
236.512
94.8091
12.1901
756.169
209.947
85.2608
6.45961
282.377
74.4865
25.0125
5.99513
797.847
221.682
88.1883
7.00495
301.742
79.8836
27.7061
7.53461
838.922
232.932
95.1832
9.38008
320.497
85.3074
30.1702
8.99523
771.435
214.966
98.7767
11.9774
321.852
86.1231
35.0685
11.255
701.428
200.867
93.6718
14.7864
292.984
84.2591
39.4982
13.372
420.27
123.732
43.9761
5.51754
232.305
77.2439
29.8579
11.027
536.036
151.58
62.9439
8.99503
264.688
82.4556
35.7979
12.8319
284.372
90.2174
31.0576
5.08563
164.744
59.7027
21.483
8.7242
134.769
51.5653
22.1385
8.1021
87.5931
38.0228
15.9381
7.5081
1.52291
0.529903
0.177829
0.0592356
0.0238658
0.896206
0.284028
0.0938234
0.031274
0.0126407
2.73886
0.916454
0.309742
0.104643
0.0427098
2.31969
0.739586
0.250021
0.0849636
0.0348805
3.63168
1.28983
0.451654
0.155665
0.0643893
5.29328
2.03995
0.724389
0.251484
0.104655
4.6638
2.01464
0.747301
0.2663
0.112933
5.73387
2.30563
0.851737
0.306575
0.13174
3.26418
1.51304
0.565136
0.200448
0.0844005
3.13881
1.36615
0.506444
0.179793
0.0758806
3.38932
1.37367
0.49331
0.17157
0.0713381
4.14034
1.59555
0.556772
0.191435
0.0792303
3.26711
1.56103
0.598915
0.216666
0.0926351
3.54631
1.45698
0.542729
0.195103
0.0833493
4.54895
1.81364
0.672866
0.243357
0.10499
3.83123
1.48363
0.548784
0.198904
0.0860178
0.906943
0.407855
0.141272
0.0470116
0.0188426
0.261445
0.155832
0.0551908
0.0183446
0.0073277
1.67776
0.668483
0.227661
0.0761407
0.0307838
0.549399
0.255507
0.0876905
0.0291538
0.0117204
2.3513
0.881075
0.303774
0.103253
0.0422959
1.69545
0.581892
0.191483
0.0635831
0.0257135
4.215
1.47413
0.49981
0.169168
0.0692987
2.93404
0.981279
0.323233
0.107772
0.0437574
5.50842
1.84803
0.615559
0.206922
0.0845228
3220.88
7419.68
3374.72
7399.24
3804.38
7370.12
4402.39
7527.21
4389.02
7513.41
1738.43
2596.18
2859.06
4436.96
888.498
1257.73
208.262
336.984
17326.1
4320.02
1065.48
275.908
92.9611
4790.37
1344.21
380.128
99.1261
29.9676
16966.2
4208.06
1039.6
268.033
91.1594
4885.78
1489.27
391.889
104.1
34.2493
15927.3
3943.13
975.191
252.307
86.2825
4733.44
1434.03
376.528
99.6908
32.9481
14273.6
3526.53
875.146
227.753
78.4447
4540.75
1350.14
350.992
92.3934
30.4561
11691.6
2894.64
723.889
190.168
66.1678
4199.52
1222.8
316.065
83.1096
27.4605
5372.54
1404.35
361.239
96.8856
34.2937
2010.44
595.681
153.324
39.8869
13.2695
8105.61
2079.72
528.126
140.106
49.176
2982.33
872.37
226.25
59.7237
19.9689
3123.39
825.638
214.169
57.9704
20.6606
1113.8
342.286
87.6724
22.8006
7.6641
1055.48
278.749
72.7001
19.8114
7.09733
401.188
114.523
27.5445
8.70947
2.37214
-1320.72
-463.058
5204.13
-1627.4
829.021
887.751
2540.68
3290.83
2090.69
3999.59
3580.38
5543.74
4548.82
5628.33
2298.31
3075.42
2341.48
2783.61
1213.39
1261.5
1902.9
1133.75
530.172
63.0459
-46.4881
-53.0033
198.072
13886.4
4828.51
4939.82
3876.7
808.924
730.465
3124.39
94.6032
314.697
186.579
12.8606
7442.21
4001.99
1954.07
1284.31
3042.22
1849.98
678.663
1127.16
-200.847
96.5139
945.742
813.059
8220.78
3439.21
5099.4
2372.9
2982.15
4609.26
1336.06
61.5684
1161.56
1136.51
772.878
557.271
410.406
247.347
793.187
559.353
379.96
234.028
90.2519
448.594
352.658
249.443
147.883
49.0701
54.7349
44.1819
31.9653
19.2197
6.39799
-41.1944
-33.8269
-24.6525
-14.7737
-4.89072
-46.9519
-38.5537
-28.1125
-16.8637
-5.58515
170.29
136.45
98.3887
59.2174
19.8024
8923.1
6469.89
4475.97
3072.64
2006.71
3524.99
2484.48
1778.27
1133.36
473.468
3521.46
2504.21
1732.52
1071.45
432.628
2682.66
1797.91
1226.02
745.94
267.738
600.706
396.764
285.759
177.918
64.3709
627.099
501.649
362.739
220.757
75.4442
2426.28
1787.96
1212.14
717.606
254.226
180.595
200.175
165.448
109.704
39.6439
270.489
219.155
161.799
100.626
34.9196
202.996
190.992
154.592
101.149
35.836
0.0883713
-5.92917
-6.16777
-3.61063
-0.926178
4859.57
3654.4
2579.48
1804.17
1186.17
2885.42
2060.73
1437.59
887.779
347.459
1613.33
1250.16
883.356
531.375
182.705
1054.01
811.13
568.899
339.495
115.473
2395.9
1781.23
1218.31
719.742
249.306
1533.54
1188.22
836.461
499.086
167.929
561.058
434.063
305.147
181.713
61.1664
944.073
735.907
518.008
307.054
102.299
-166.68
-126.838
-85.6524
-48.1886
-15.2982
80.214
62.6725
44.9255
27.4128
9.36604
785.951
609.064
427.722
254.101
85.314
681.76
532.81
376.5
224.157
75.0114
4841.41
3074.96
2174.53
1523.37
964.49
2411.84
1684.36
1134.31
691.767
267.197
3430.13
2473.32
1693
1066.48
428.028
1752.15
1282.31
876.695
532.762
199.367
2380.68
1791.02
1237.14
734.485
251.339
3317.63
2295.33
1579.06
965.228
348.036
1110.31
859.76
602.637
356.854
119.166
49.9403
38.0554
26.7872
16.2302
5.54714
959.255
741.032
520.652
310.426
104.722
-41013.6
-65083.7
-34281.7
-52518.4
-35468.4
-70821
-42190.7
-90094.4
-26451.1
-18556.4
-28737
-18540.7
-23830.9
-15646.4
-28467.9
-15711.4
-35215.8
-27596.3
-49803
-37125.5
-30406.8
-25227.4
-41358.7
-32106.1
-23788.3
-25115.7
-19816.4
-19783.7
-24234.4
-21957.2
-53516.1
-14837.2
-21269
-8233.28
-63608.9
-17936.9
-18826.3
-7506.28
-41045.6
-12956.2
-21901.7
-8616.2
-37391
-11525.2
-19422.8
-7991.09
-23874.9
-8799.17
-18585
-8378.34
-20689.7
-7657.29
-19126.7
-9668.7
-16530.5
-6767.66
-20477.4
-7404.96
-7166.31
-2573.07
-15530.3
-11166.3
-13367
-8675.67
-13103.4
-10858.2
-11388.8
-8272.75
-14024.9
-8748.62
-16724.3
-11517.2
-9261.06
-5922.04
-5144.39
-3481.27
-7911.02
-5618.59
-4411.82
-3335.15
-9602.75
-5756.38
-5351.55
-3085.82
-12742.1
-6678.05
-9014.02
-10160.3
-16495.1
-11431.6
-12901.9
-17344.2
-8549.6
-3944.1
-5437.53
-5810.74
-4590.12
-1897.71
-2555.54
-2240.98
-20075.4
-25420.6
-11653.6
-29469.7
-20853.3
-24202
-13429.7
-30071
-20967.1
-21749.9
-16002.3
-28430.7
-13373.5
-10526.4
-15468.4
-17677.9
-18039.3
-14001
-17134.8
-20962.7
-23746.4
-34236.2
-10115.7
-11353.2
-12955.6
-15875.9
-24115.2
-24683.5
-17340.3
-31824.5
-24746.2
-22850.1
-16989.3
-31357.7
-24687
-20090
-15989.8
-29270
-24511.1
-11350.5
-9055.39
-13072.5
-10758.9
-15280.5
-12913.2
-17659.4
-15504.1
-26548.9
-24647.1
-10234.1
-9217.52
-11720.2
-11357.9
-13870
-14262.8
-17173.8
-18163.2
-23793.3
-25455
-9889.41
-7747.56
-7195.58
-8371.26
-10810
-13119.5
-8107.14
-12033
-7226.2
-8447.27
-10397.9
-8387.92
-2322.96
-5605.02
-1120.71
-1983.36
-4328.89
-8144.32
-1535.24
-2679.37
-1912.84
-5429.86
-949.356
-1930.5
-7721.17
-7221.92
-9033.85
-5637.08
-11998.4
-9343.93
-14661.4
-9876.77
-2631.22
-4057.11
-4648.41
-2731.38
-2499.2
-2785.9
-3164.18
-2319.49
-10655.8
-3659.22
-14578.4
-4935.05
-10882.6
-3839.44
-14918.5
-5305.55
-10797.1
-3768.63
-15629.6
-5895.99
-5629.87
-1775.59
-7552.91
-2786.17
-9177.8
-3464.59
-11477.1
-4235.75
-16566.5
-6444.81
-6570.55
-2249.18
-7825.55
-3462.22
-9995.18
-4310.63
-13171.3
-5425.99
-17532.8
-6561.08
-9074.87
-8308.98
-7388.36
-7014.64
-15177
-11640.6
-12682.3
-10460.6
-5672.62
-4226.56
-2403.45
-1565.89
-5559.17
-4642.62
-2452.55
-2191.62
-4775.66
-6371.07
-5306.85
-6723.86
-4991.14
-3921.22
-5507.57
-2153.56
-10197.9
-3692.28
1112.65
-1364.24
-2599.62
-1890.18
-1262.4
-1108.27
-2524.9
-1294.6
-1018.71
-470.817
-2823.03
-1425.9
-1599.54
-661.776
-3353.99
-1732.34
-2700.51
-1216.04
-2343.81
-884.976
-865.471
-158.489
-6998.52
-6998.45
-5786.44
-5027.2
-9849.72
-9536.57
-8412.7
-6895
-3778.58
-3534.94
-4922.65
-4952.35
-3982.64
-3250.17
-2285.18
-1923.08
-5781.79
-4511.79
-3347.57
-2691.66
-2544.85
-2262.76
-1356.19
-1356.71
-2318.55
-1165.99
-2472.48
-1260.39
-2954.73
-1530.18
-3421.72
-1787.81
-1472.06
-769.388
-1553.27
-703.759
-594.262
-213.522
-862.642
-244.199
-3214.47
-3381.62
-1878.28
-2184.18
-3330.76
-3580.03
-1926.83
-2190.75
-3746.69
-3672.47
-2061.28
-2140.49
-4791.49
-7505.27
-3677.59
-2508.19
-1456.55
-10501.2
-7203.32
-5632.22
-4281.94
-2510.22
-8394.81
-6395.69
-4625.13
-3336.74
-1668.59
-3262.65
-2686.66
-2614.98
-3422.5
-3376.78
-2690
-2590.34
-3353.86
-3581.3
-2982.04
-2515.5
-3246.55
-9444.2
-7191.18
-7548.54
-5596.32
-5535.4
-4164.08
-4191.14
-3347.06
-2439.91
-3048.26
-7523.05
-6893.46
-5608.92
-5187.6
-4080.47
-3785.79
-3016.69
-2940.56
-1616.15
-2522.4
-4628.19
-3323.03
-3408.54
-1886.74
-7286.09
-6012.36
-5673.09
-4395.11
-2274.59
-1169.14
-3092.26
-2269.95
-3691.23
-1566.99
-1100.75
-455.032
-4599.88
-3131.21
-1436.13
-1003.89
-2677.41
-999.658
-777.254
-263.639
-1435.94
-1138.87
-887.915
-1296.54
-1996.14
-1744.85
-1135.59
-1681.85
-1679.12
-854.196
-636.744
-876.734
-222.247
-10.2886
346.969
67.4003
-1768.12
-549.148
-2181.54
-220.659
-1833.04
-636.498
-2186.75
-243.444
-1834.56
-571.113
-2055.59
-187.12
-4228.7
-1221.86
-3320.27
-979.062
-2724.07
-893.618
-1999.09
-528.17
-1959.44
-264.692
-4942.78
-1340.81
-3676.8
-870.278
-2769.28
-663.015
-2111.17
-412.44
-2022.87
-296.645
-505.581
-157.065
-30.4674
11.7485
-199.005
-62.2347
-15.0544
0.962299
-533.83
-162.638
-35.5534
5.88952
-221.312
-65.1106
-29.987
-11.7765
-584.524
-171.958
-51.4071
-8.01394
-336.446
-87.2277
0.949976
14.6651
-110.917
-12.4191
50.9061
39.9174
63.9861
49.6009
40.3232
20.2045
-433.633
-119.781
-0.63558
34.8156
-341.4
-80.8598
-16.7066
24.6378
-597.8
-168.498
-38.8864
10.2054
-484.95
-120.128
-32.3362
30.5916
-248.165
-59.6041
9.48518
25.6122
-195.879
-39.8426
-6.59832
14.17
-29.3868
12.7391
18.7886
11.1431
-26.0122
10.0156
8.22796
7.85318
-683.603
-204.248
-40.4451
23.1824
-727.627
-199.353
-74.7552
22.9834
-676.378
-198.465
-38.6225
24.6197
-709.662
-191.937
-73.8493
23.7182
-660.276
-187.981
-54.4295
11.4441
-668.387
-177.82
-81.6708
15.8902
-507.649
-138.815
-56.1753
-8.45249
-721.068
-185.463
-101.778
16.6464
-466.688
-114.983
-47.089
14.2359
-592.037
-138.977
-64.1206
9.02007
-240.253
-50.4577
-14.9505
-0.599953
-578.55
-135.23
-62.3851
9.67941
-237.544
-49.6642
-15.6968
-1.38304
-541.519
-125.071
-64.6793
8.1365
-220.005
-45.2388
-14.6894
-1.28341
-481.505
-111.055
-69.7723
4.46987
-198.929
-40.4812
-17.8489
-2.47698
-412.603
-93.4407
-60.4398
1.97992
-146.056
-28.6253
-19.0453
-3.02941
-266.378
-53.4125
-12.9683
11.6655
-83.6109
-10.2071
-1.889
3.15404
-348.809
-75.4331
-33.2067
7.58186
-102.066
-16.5747
-10.1316
0.0495858
-155.178
-24.1633
0.190069
12.0025
-47.3462
0.407428
5.79696
5.42323
-22.4131
10.8481
8.36271
8.48934
8.78936
16.5368
9.97385
6.11693
1.83395
0.35777
0.0846124
0.0256059
0.0108079
0.629535
0.156406
0.042112
0.0135525
0.00584905
1.77576
0.46692
0.139511
0.047961
0.0212161
0.741516
0.312699
0.11049
0.0405
0.0182749
2.35999
0.699638
0.225261
0.0798532
0.0354955
3.1789
1.05076
0.373271
0.137774
0.0619196
4.44326
1.43862
0.506495
0.183928
0.0811832
5.2855
1.97076
0.722322
0.263218
0.115131
3.97078
1.06468
0.346172
0.122879
0.0541842
3.42748
0.960723
0.316151
0.11247
0.049573
3.07415
0.804452
0.257984
0.0918206
0.0408249
2.72349
0.764056
0.266152
0.0985589
0.0445591
4.49037
1.33338
0.44675
0.158565
0.0692478
3.39479
1.13393
0.395156
0.142103
0.0623534
4.29551
1.61784
0.591454
0.215018
0.0939021
3.44352
1.32844
0.487772
0.177384
0.0774664
2.44392
0.356341
0.0711655
0.0198837
0.00817157
1.23443
0.152784
0.0278135
0.00750428
0.00306314
2.3593
0.399936
0.0996474
0.0322896
0.0141041
1.19515
0.164455
0.0370433
0.0116927
0.00509895
2.21057
0.475097
0.139154
0.0482089
0.0214095
0.944988
0.210586
0.0693292
0.0257992
0.0118727
2.2405
0.60956
0.207754
0.0769316
0.0349867
1.13414
0.318324
0.116557
0.0447854
0.0207576
1.73355
0.615986
0.237475
0.0920866
0.0426137
-3004.19
-6123.49
-3192.74
-6204.95
-3645.19
-6357.68
-4135
-6616.92
-4058.15
-6669.95
-1806.43
-2591.94
-2758.15
-4158.08
-1051.21
-1372.73
-417.093
-503.534
-17182.1
-4312.52
-1069.46
-277.864
-93.6735
-4701.25
-1340.91
-381.412
-99.8109
-30.2033
-16819.3
-4199.6
-1043.24
-269.884
-91.8403
-4799.38
-1484.08
-393.098
-104.803
-34.5128
-15778
-3933.92
-978.335
-253.965
-86.8953
-4649.2
-1428.06
-377.499
-100.339
-33.1972
-14145.3
-3519.9
-878.084
-229.192
-78.9661
-4452.09
-1342.88
-351.667
-92.9586
-30.6785
-11626.4
-2895.27
-726.963
-191.364
-66.5733
-4112.77
-1215.95
-316.686
-83.6157
-27.6569
-5417.26
-1415
-363.961
-97.5679
-34.4836
-2014.52
-599.443
-154.825
-40.3418
-13.409
-8122.6
-2088.26
-531.24
-141.028
-49.4582
-2938.84
-870.182
-227.134
-60.1567
-20.1245
-3167.18
-834.856
-216.266
-58.4549
-20.7879
-1150.84
-351.447
-89.9138
-23.3363
-7.80654
-1093.41
-286.229
-74.3237
-20.1715
-7.1891
-454.771
-126.789
-30.2683
-9.31422
-2.52173
-1688.93
-3076.89
-8929.98
-1088.99
-9430.5
-4190.78
-9199.64
-4431.12
-16821
-8987.08
-18676.6
-9788.54
-14.9619
-45.8807
-74.0727
-89.7049
-63.4338
80.5591
-29.3307
-90.8221
-150.022
-188.765
-163.771
-1.67246
-10.2359
-9.35627
-30.4464
-28.981
-44.1647
-46.1271
-35.4001
-46.5447
-11.3668
-44.557
53.7321
-11.9069
494.872
1149.4
2014.56
1437.19
1248.71
463.921
378.508
1015.5
1779.75
2189.86
1842.72
727.776
-13.2307
-10.9087
-8.0458
-4.90092
-1.64268
-40.5754
-33.4602
-24.6856
-15.0412
-5.04245
-65.4316
-53.8832
-39.6981
-24.1623
-8.0955
-79.1619
-65.1147
-47.9168
-29.1378
-9.75754
-56.2679
-46.5582
-34.4528
-21.0347
-7.058
68.3371
53.6618
37.7498
22.2033
7.31368
-25.8659
-21.2553
-15.6233
-9.49049
-3.1762
-80.0623
-65.7661
-48.3274
-29.3538
-9.82379
-131.954
-108.106
-79.2346
-48.0315
-16.0581
-165.506
-135.096
-98.6629
-59.6493
-19.915
-143.155
-116.452
-84.7768
-51.1381
-17.0551
-2.38265
-2.79168
-2.61389
-1.82733
-0.64981
-9.07187
-7.50069
-5.54847
-3.38778
-1.13698
-8.30302
-6.87613
-5.09516
-3.11535
-1.04636
-26.9843
-22.3123
-16.5071
-10.0804
-3.38347
-25.7043
-21.2728
-15.7524
-9.62659
-3.23243
-39.1182
-32.3211
-23.8932
-14.5816
-4.89243
-40.8399
-33.7255
-24.9167
-15.1987
-5.09816
-31.48
-26.132
-19.4057
-11.8831
-3.9938
-41.162
-33.9411
-25.0353
-15.2501
-5.11133
-10.6476
-9.34483
-7.28896
-4.61652
-1.57681
-39.3602
-32.4002
-23.8476
-14.4971
-4.85289
45.4199
35.5269
24.9066
14.6185
4.81173
-10.9761
-9.43643
-7.1984
-4.47392
-1.51131
422.983
335.696
239.024
142.052
47.0833
970.995
762.3
538.585
319.063
105.862
1666.23
1285.53
898.665
531.383
177.519
1170.98
894.814
624.448
370.366
124.054
1044.65
800.707
555.352
324.956
102.964
405.175
316.474
222.105
130.244
39.8332
323.371
256.481
182.508
108.411
35.9209
860.615
677.425
479.405
284.091
94.1624
1490.67
1161
815.725
482.157
160.063
1812.58
1397.57
975.993
576.051
191.685
1522.53
1169.88
814.485
479.753
158.961
604.601
466.634
326.398
192.997
63.911
16.2659
47.7056
77.0646
94.8722
72.5823
-62.8892
31.558
93.7494
154.184
194.253
170.263
9.66753
11.1138
10.0503
31.7635
30.1735
46.402
48.3601
39.1346
49.9112
19.4713
44.1872
-29.2657
21.3575
-463.602
-1101.03
-1937.49
-1368.18
-1211.65
-450.942
-366.575
-996.968
-1749.53
-2155.6
-1815.58
-708.456
14.4236
11.9348
8.83737
5.40127
1.81391
42.243
34.8924
25.7888
15.7375
5.28057
68.1596
56.2198
41.4923
25.292
8.48131
83.8567
69.1179
50.9764
31.0568
10.4115
64.5361
53.5623
39.7688
24.3502
8.18419
-52.529
-40.4369
-27.8427
-16.0898
-5.24935
27.9099
23.0198
16.9894
10.3565
3.473
82.7515
68.0903
50.1286
30.4963
10.2155
135.782
111.419
81.8051
49.6632
16.6177
170.558
139.471
102.059
61.8054
20.6546
149.11
121.586
88.7425
53.6461
17.9135
9.58197
8.86244
7.19914
4.67563
1.61513
9.87304
8.18785
6.07704
3.72113
1.25092
8.93556
7.41777
5.5111
3.37732
1.13584
28.1838
23.3386
17.2944
10.5759
3.55258
26.789
22.1995
16.4624
10.0728
3.38465
41.1489
34.0511
25.2144
15.4099
5.1746
42.8665
35.4517
26.2348
16.025
5.37963
34.8482
28.9792
21.5625
13.2264
4.44972
44.2082
36.5262
27.0016
16.4787
5.52914
17.9309
15.473
11.9084
7.48205
2.54726
39.1939
32.429
23.9991
14.6553
4.91848
-23.606
-17.3534
-11.3488
-6.27894
-2.0002
19.4975
16.6317
12.6404
7.85838
2.65944
-395.331
-312.885
-222.186
-131.79
-43.643
-928.463
-727.421
-512.99
-303.546
-100.682
-1597.65
-1228.38
-856.037
-505.225
-168.747
-1102.77
-832.073
-573.412
-336.884
-112.268
-999.991
-753.809
-513.361
-295.43
-92.0184
-380.048
-283.918
-189.379
-105.671
-30.4537
-312.895
-247.916
-176.245
-104.624
-34.6576
-844.499
-664.392
-469.982
-278.453
-92.2945
-1463.74
-1138.54
-798.953
-471.848
-156.595
-1779.88
-1368.25
-952.567
-560.875
-186.41
-1493.03
-1140.38
-788.824
-462.099
-152.599
-579.945
-439.191
-300.784
-174.609
-57.1543
-1928.57
-1129.42
-453.344
-5.91166
119.986
151.889
-86.1407
-12130.2
-3162.83
-3903.78
-1844.52
-326.048
-3067.67
37.4532
977.937
290.531
-6696.58
-3326.74
-1301.94
-972.92
-2806.91
-1519.57
-559.733
-960.123
549.77
132.785
-701.707
-576.306
-7996.8
-3354.25
-4722.26
-2195.45
-2783.57
-4054.76
-1159.26
121.985
-895.381
-1094.43
-698.233
-475.308
-344.837
-219.264
-762.178
-512.443
-329.965
-195.044
-74.6434
-380.438
-296.21
-207.598
-122.289
-40.4758
-3.43052
-1.09412
0.42441
0.818019
0.377637
106.582
88.1528
65.0643
39.5751
13.2413
134.52
110.939
81.7022
49.6369
16.5995
-70.1253
-52.7174
-35.7768
-20.6634
-6.80424
-7758.44
-5685.16
-3990.44
-2866.9
-2069.82
-2109.06
-1345.01
-966.334
-659.161
-315.499
-2690
-1851.07
-1272.06
-803.804
-349.609
-1200.5
-749.314
-522.443
-335.394
-124.56
-259.72
-194.436
-134.699
-81.3543
-28.6604
-2380.86
-1763.11
-1199.51
-713.027
-254.081
47.1244
45.9923
35.4488
20.5398
5.99031
804.319
614.847
424.02
246.44
80.7105
256.059
207.977
149.902
89.1571
29.3129
-4201.3
-3142.87
-2225.43
-1614.75
-1159.97
-2293.13
-1572.74
-1079.9
-673.4
-278.628
-1039.9
-781.681
-541.29
-324.989
-114.205
-780.851
-587.862
-405.638
-240.854
-82.6969
-2209.16
-1643.41
-1127.06
-669.349
-234.005
-1234.1
-935.634
-646.733
-382.129
-128.482
-453.997
-343.874
-237.209
-139.672
-46.9758
-797.061
-615.366
-429.625
-253.516
-84.4361
473.579
378.346
270.316
160.489
52.9529
121.832
103.349
77.2723
46.9987
15.59
-572.123
-435.155
-301.32
-177.997
-60.0022
-473.198
-361.707
-250.953
-148.01
-49.5727
-4628.74
-2884.34
-2022.17
-1429.13
-941.86
-2324
-1600.04
-1063.38
-644.209
-250.285
-3048.56
-2137.55
-1429.52
-899.673
-365.769
-1581.48
-1128.95
-755.069
-454.769
-172.706
-2203.71
-1643.55
-1127.58
-667.641
-229.046
-2830.39
-1886.98
-1276.9
-782.415
-288.183
-954.469
-731.597
-508.332
-299.572
-100.037
112.422
95.9411
72.2306
44.2244
14.7484
-722.291
-544.303
-374.723
-221.256
-74.8398
-18.123
-48.0993
-83.8308
-140.301
-234.11
-375.33
-30004.6
-26664
-24597.6
-27913.7
-22273.8
-17778.8
-19437.1
-14833.6
-27175
-24689.1
-25136.8
-24356.8
-22252.6
-19153.1
-23683.7
-25286.6
-22768.6
-20237.5
-22692.4
-19305.2
-16349.9
-16658.3
-13356.6
-24931.7
-23104.7
-23086.3
-21832.6
-20173.1
-18674.1
-20018.3
-20433.3
-18833.5
-16350.5
-17833.2
-16454.7
-14220.5
-14119.9
-12008.6
-21347.5
-20502.8
-19936.1
-19229.1
-17478.9
-16071.6
-17447.7
-14799.3
-13969.8
-11816.6
-12537.2
-12588
-11311.6
-10677.9
-9564.66
-16076.8
-16598.5
-15202.4
-15727.7
-13669
-12419
-14088.7
-9685.77
-9272.17
-7710.68
-8064.74
-8551.45
-7748.12
-7130.55
-6475.6
-10814
-11060.2
-10326
-10463.1
-9456.59
-8584.49
-9533.55
-3525.22
-3400.07
-2807.18
-2916.01
-3177.5
-2941.56
-2627.76
-2413.53
-4041.62
-4168.51
-3826.08
-3809.02
-3549.92
-3253.56
-3570.41
-10700.9
-10452.9
-16412.7
-17711.3
-9886.9
-8702.71
-14350.4
-11595.8
-7493.26
-4994.53
-7489.08
-5138.47
-7447.32
-7239.19
-5422.82
-10574.7
-10005.6
-14758.3
-16075.2
-9234.5
-8254.83
-12817.6
-10851.1
-7452.26
-4185.18
-7348.2
-4498.29
-6710.18
-6546.16
-5031.53
-9506.06
-9007.15
-12552.4
-13482.3
-8363.25
-7625.83
-11158.2
-9681.53
-6077.59
-3971.11
-6037.08
-4321.35
-5551.09
-5592.18
-4682.56
-7461.19
-7117.62
-9406.34
-9928.76
-6659.85
-6095.2
-8603.87
-7676.88
-5282.44
-3220.13
-5187.58
-3518.2
-4785.89
-4776.74
-3802.69
-5011.17
-4807.42
-6196.09
-6472.45
-4446.02
-4022.17
-5761.87
-5178.33
-3529.69
-2228.98
-3464.26
-2436.57
-3210.81
-3172.27
-2555.02
-1837.89
-1767.1
-2259
-2348.21
-1633.37
-1473.71
-2116.8
-1915.55
-1193.65
-802.092
-1229.77
-891.785
-1173.1
-1150.21
-917.412
9721.44
31230.9
7813.1
32601.8
5729.74
33230.7
8756.59
49595.6
10705
67737.2
10808.2
50313.1
10594.6
42295.2
11054.9
37327.5
6645.76
4290.87
17960.1
10807.3
6341.27
3410.24
18919.6
9291.16
7623.32
5879.23
23953
17797.7
5776.29
4527.55
23994.2
18347.4
13712.1
5888.06
11943.6
5456.02
5805.47
13208.2
44533.3
11769.2
15997
4912.51
55640.9
14664.7
14333.9
4339.34
32833.9
10000.4
16810.8
5563.26
29447
9219.9
10652.6
5279.96
13492.7
5442.74
11657.4
6254.74
13302.6
5309.21
14111.4
8192.7
11383.5
5178.12
15975.5
5937.06
5370.88
1933.33
17624.7
12463.7
10424.7
7610.86
17517.1
14244
9313.97
7767.99
10750.2
7560.91
16189.7
11350.9
6493.68
4690.28
2804.73
2263.2
5644.72
4688.98
2362.46
2308.04
6792.44
4548.67
3074.87
1936.75
10240.2
5808.44
8101.38
9757.03
14749.1
10756.6
12324.9
17069.1
6432.14
3206.46
4540.99
5430.25
2894.14
1283.61
1714.77
1894.86
15284.8
27047.6
10127.5
30023.7
17528.2
26147.5
12319.1
30966.7
19256
23159.7
15409.4
29499.3
18169.2
18831.2
16069
16204.8
17500.9
18685.6
20190.5
22506.7
24727.5
35361.3
15361.7
13966.6
13696.2
15985.8
24362.9
31575.4
28231.9
36365.3
35042.2
28740
26574.3
35534.1
34017.6
24556.1
23960.7
32862.9
32373.3
13798.9
11047.2
15528.5
14017.9
18527.1
17541.6
21397.1
21280.5
29447.7
30719.7
12689.3
11520.4
14225.1
15023.1
16280.7
18717.2
19325
22976.7
25409.4
30520
11296.7
8702.91
7271.39
8619.13
13240.5
14821.2
8717.76
12924.6
6978.99
8408.54
11002.2
8983.65
1864.45
5433.7
495.683
1622.68
4148.49
8294.89
1088.19
2525.12
1361.42
5124.31
285.763
1512.26
7410.73
7126.24
8804.34
5610.63
12201.5
9809.25
14739.1
10419.7
2159.72
3768.11
4339.18
2542.38
1947.96
2412.61
2812.28
2058.8
22650.3
13775.6
4434.02
25434
14675.3
4808.23
21643.8
13546.5
4641.32
24761.7
14575.9
4778.43
19687.9
12364.6
4084.25
23803.4
14428.5
4797.21
7902.74
4805.35
1494.76
11668.1
7751.14
2624.32
15184
10254.4
3499.67
18497.5
12005.1
3985.18
23287.5
14576.1
4994.78
8886.69
5516.23
1942.57
11806.8
8533.36
3240.83
15113.9
10961.6
4059.53
18951.2
13188.9
4741.02
23617.7
14911.7
5301.61
245.78
2017.48
2783.93
4091.37
2624.38
2837.57
6421.7
5925.61
544.344
821.466
579.007
849.841
369.886
1149.67
722.777
1526.35
2694.09
1365.31
3631.49
2172.33
1786.33
2974.79
3230.53
-60.915
6946.24
931.973
-3022.05
-736.287
1059.26
170.224
212.1
-349.766
7906.59
3025.7
2088.58
1103.62
8043.21
3102.76
2638.32
1366.73
8036.89
3284.74
3632.05
2060.89
2287.12
1308.55
288.997
374.759
12938.2
11008.9
5801.29
5747.06
15501.1
14034.4
7407.53
7113.85
4497.18
4424.86
9986.27
7826.42
3048.58
3176.67
1127.43
1570.38
4185.07
4034.86
1719.52
1994.93
2191.99
2464.2
667.455
1289.83
3468.43
1864.76
3262.1
1730.22
5840.04
2602.55
5140.73
2529.91
1673.78
1148.4
1861.37
982.647
416.36
428.004
964.697
428.377
8885.76
5032.24
3682.7
3090.44
8929.22
5358.13
3668.66
3091.35
9617.88
6045.26
3727.47
3101.37
14170.4
17093.8
11501.3
6678.48
2847.17
15932.1
13003.6
10594.7
7529.23
3568.25
14851.8
11913.2
8392.71
5504.08
2526.92
3271.93
2239.38
2539.28
2212.19
3684.77
2451.91
2685.36
2315.35
4419.92
2960.49
2925.04
2515.19
11776.7
8288.33
9508.06
6312.89
6431.92
4699.22
5009.97
3680.23
2878.14
2688.6
9853.25
8413.05
7615.71
6280.38
5571.91
4601.7
3984.11
3420.18
2190.18
2529.05
6779.61
4517.3
4303.11
2688.5
9963.52
7446.05
6601.92
5314.47
3013.57
1816.14
4574.02
3172.83
3952.47
1871.04
1056.44
543.361
4707.18
3404.73
1206
1011.28
2983.8
1277.93
856.493
383.27
1943.1
1560.54
1156.85
1486.4
2872.94
2317.25
1525.83
1888.83
1952.87
1063.88
825.051
1001.13
364.679
129.568
-208.686
26.5595
1352
563.017
161.578
1327.88
378.221
100.727
1533.09
674.133
202.566
1415.39
423.926
117.773
1784.7
832.601
232.126
1551.53
487.822
125.84
5377.02
3028.28
871.396
3833.52
2006.08
578.677
2902.3
1455.46
431.658
2198.07
1035.96
274.862
1686.68
530.6
115.232
6259.14
3415.97
1082.89
4518.96
2300.6
698.66
3289.7
1628.26
489.81
2397.89
1081.54
301.651
1842.83
521.588
136.28
953.636
282.222
69.0906
3.00443
391.677
118.866
31.9819
4.70586
988.127
297.089
78.5962
10.4766
469.551
147.152
55.3861
19.9435
1024.59
312.189
98.7038
26.0439
707.942
233.049
55.9924
8.54521
401.252
150.572
9.43471
-14.5147
213.652
102.487
27.7927
7.99197
734.856
241.189
51.3991
-11.8795
574.686
182.876
60.6648
-3.17172
950.435
292.649
85.5804
10.2223
793.218
239.797
80.6367
-5.5188
484.665
172.618
40.1211
-3.95835
370.539
126.572
46.9156
5.40271
229.871
96.0381
32.0282
11.3685
170.384
68.5711
30.3841
11.1667
1170.84
344.379
86.4212
-2.83746
1064.19
311.33
107.798
-2.00078
1155.61
340.652
86.7169
-3.06226
1031.43
299.976
106.501
-2.70129
1115.66
329.24
100.9
8.56521
972.184
279.972
112.08
4.43976
941.704
283.457
106.346
30.1672
1055.53
301.788
139.039
8.48074
794.109
236.445
94.7784
12.1757
758.641
210.822
85.6207
6.41752
283.758
74.9328
25.1558
6.01149
796.739
221.334
88.075
6.98603
301.298
79.7454
27.6506
7.5261
838.506
232.785
95.1366
9.36861
320.307
85.2387
30.1421
8.98482
771.112
214.865
98.7382
11.9699
321.701
86.0719
35.046
11.2444
701.181
200.795
93.6408
14.7806
292.873
84.2215
39.4789
13.3624
420.24
123.739
43.9813
5.52408
232.306
77.2501
29.8595
11.0277
535.904
151.552
62.9331
8.99558
264.626
82.435
35.7863
12.8258
284.44
90.2601
31.0782
5.09828
164.812
59.7405
21.4999
8.73271
134.915
51.6393
22.1719
8.11956
87.7137
38.0871
15.9672
7.523
1.46594
0.509575