/*--------------------------------*- C++ -*----------------------------------*\
  =========                 |
  \\      /  F ield         | OpenFOAM: The Open Source CFD Toolbox
   \\    /   O peration     | Website:  https://openfoam.org
    \\  /    A nd           | Version:  11
     \\/     M anipulation  |
\*---------------------------------------------------------------------------*/
FoamFile
{
    format      ascii;
    class       volScalarField;
    location    "0.6";
    object      T;
}
// * * * * * * * * * * * * * * * * * * * * * * * * * * * * * * * * * * * * * //

dimensions      [0 0 0 1 0 0 0];

internalField   nonuniform List<scalar> 
5712
(
527.429
549.137
513.845
540.016
494.983
527.845
464.242
502.199
464.463
494.405
492.225
522.015
509.502
535.621
521.062
544.492
482.726
455.85
509.177
470.567
450.245
423.137
475.815
435.405
537.074
546.001
554.713
559.762
523.258
534.258
546.319
553.541
524.187
503.05
494.041
479.796
517.227
537.368
534.496
534.009
484.014
489.248
505.837
504.33
447.767
451.651
542.745
545.645
508.86
516.937
554.482
558.303
551.732
564.187
563.845
569.427
541.875
560.101
559.029
567.435
522.494
551.339
540.242
560.375
552.653
565.399
557.38
567.14
435.836
420.186
446.318
424.09
401.528
388.347
411.276
391.828
479.053
456.926
468.228
452.17
453.413
425.818
454.939
425.311
417.691
393.394
418.868
392.838
486.298
459.111
488.116
458.921
509.708
548.05
492.003
535.076
498.91
541.433
485.952
529.481
516.906
551.697
494.89
537.927
519.081
552.985
495.142
539.106
539.094
514.809
557.347
539.669
524.451
500.59
551.145
531.466
503.507
482.349
540.638
520.262
414.086
375.916
450.107
482.566
528.028
368.85
405.896
440.128
469.437
510.785
375.77
410.184
443.729
476.749
518.498
471.832
434.355
479.096
443.108
465.102
430.264
477.678
441.818
455.599
423.615
475.998
441.145
356.063
340.009
392.282
372.041
423.33
398.762
449.636
420.967
477.951
445.798
361.733
344.449
396.047
378.455
428.561
407.905
458.857
434.067
486.967
459.228
403.552
394.432
403.488
396.456
368.71
347.591
369.813
349.226
436.625
432.42
436.642
429.166
401.401
396.685
401.116
396.926
369.266
350.148
369.022
350.243
434.216
432.743
434.064
433.238
469.697
464.943
498.367
492.522
468.338
459.743
496.239
486.2
468.717
466.047
498.97
494.728
467.17
465.336
497.548
493.647
394.75
364.923
349.678
398.714
366.605
350.792
393.361
363.144
347.354
398.252
365.282
348.718
387.984
358.018
342.229
398.085
363.071
345.428
322.353
308.742
301.579
348.069
327.159
315.771
369.469
342.349
327.517
385.831
354.197
337.349
400.953
362.35
342.479
325.506
309.363
300.805
355.721
331.727
318.014
378.499
347.214
329.245
396.451
358.238
337.026
408.709
364.797
341.351
375.171
364.839
381.434
370.874
410.122
391.189
423.115
400.139
350.306
328.21
351.422
329.763
351.66
330.81
353.328
332.323
352.458
348.828
351.324
346.176
333.97
336.854
374.936
377.108
406.411
409.032
355.126
358.53
354.656
356.4
339.093
341.071
308.254
292.928
312.456
295.176
310.359
293.287
314.354
295.72
313.775
293.835
319.375
297.019
322.086
298.84
322.603
299.472
345.949
335.754
353.378
338.895
371.221
359.318
379.629
362.711
333.318
319.834
326.924
317.127
357.261
340.339
358.295
340.265
384.479
364.243
385.548
363.901
336.519
321.147
337.453
321.235
314.887
294.892
305.438
291.244
309.692
292.483
303.268
289.99
317.689
296.529
306.53
291.923
318.696
297.389
306.705
292.118
294.889
287.293
288.436
284.194
296.542
289.056
288.68
284.7
299.819
293.057
289.39
286.082
326.404
346.793
312.092
301.854
289.39
341.112
321.688
306.389
297.377
287.274
346.54
326.115
310.792
299.588
288.334
282.352
278.933
280.923
278.286
283.941
280.093
281.628
278.904
287.319
282.648
283.079
280.125
329.722
316.787
312.116
301.734
299.882
292.364
292.033
286.292
284.84
281.622
333.839
318.624
315.648
303.459
303.073
294.091
294.077
287.396
285.986
282.366
320.001
304.403
322.976
306.631
339.812
320.049
342.78
322.08
308.35
296.526
305.926
294.676
325.14
307.832
325.315
308.03
344.456
322.986
344.459
323.124
310.29
297.648
310.484
297.824
296.689
288.547
287.119
282.689
295.509
287.355
286.641
282.252
297.579
289.305
287.368
282.88
298.386
289.62
287.809
283.268
276.139
274.812
274.291
275.012
274.023
273.691
277.04
275.41
274.754
275.444
274.315
273.906
278.888
276.692
275.766
276.194
274.734
274.195
304.036
295.042
290.546
292.596
286.712
283.913
285.862
281.747
279.905
281.231
278.152
276.82
276.888
275.027
274.339
304.405
293.862
288.852
293.024
285.82
282.596
286.403
281.291
279.093
281.479
277.933
276.506
276.842
274.922
274.229
282.273
276.976
274.664
273.676
283.087
277.223
274.725
273.683
282.283
276.982
274.673
273.683
283.296
277.296
274.766
273.706
282.206
276.963
274.714
273.716
283.402
277.339
274.835
273.748
283.963
277.534
274.834
273.725
284.253
277.664
274.857
273.727
282.762
277.17
274.792
273.743
281.698
276.891
274.724
273.754
281.901
276.89
274.735
273.753
281.26
276.734
274.682
273.755
283.372
277.384
274.826
273.737
281.999
277.007
274.755
273.762
283.726
277.524
274.865
273.753
282.178
277.085
274.787
273.782
280.949
276.59
274.582
273.678
279.496
276.159
274.477
273.681
280.938
276.586
274.592
273.687
279.602
276.191
274.488
273.689
280.982
276.599
274.619
273.71
279.917
276.287
274.522
273.705
280.856
276.572
274.632
273.733
280.165
276.367
274.561
273.727
280.716
276.555
274.639
273.756
278.435
275.854
274.334
273.682
277.878
275.708
274.275
273.663
278.646
275.919
274.358
273.693
278.098
275.777
274.298
273.672
279.045
276.041
274.395
273.708
278.494
275.903
274.334
273.687
279.548
276.199
274.457
273.734
278.973
276.058
274.385
273.708
280.044
276.375
274.53
273.761
279.41
276.218
274.44
273.73
280.658
276.639
274.608
273.786
280.015
276.495
274.549
273.775
280.404
276.525
274.571
273.773
279.754
276.373
274.498
273.754
280.823
276.72
274.624
273.794
280.202
276.589
274.581
273.79
280.946
276.78
274.648
273.806
280.333
276.655
274.609
273.804
273.281
273.119
273.048
273.019
273.009
273.282
273.119
273.048
273.019
273.009
273.284
273.12
273.048
273.019
273.009
273.287
273.121
273.049
273.019
273.009
273.289
273.121
273.049
273.019
273.009
273.292
273.122
273.049
273.019
273.009
273.297
273.124
273.05
273.02
273.009
273.302
273.127
273.051
273.02
273.009
273.295
273.123
273.049
273.02
273.009
273.299
273.124
273.05
273.02
273.009
273.293
273.122
273.049
273.019
273.009
273.296
273.123
273.049
273.02
273.009
273.299
273.125
273.05
273.02
273.009
273.303
273.126
273.05
273.02
273.009
273.305
273.127
273.051
273.02
273.009
273.308
273.128
273.051
273.02
273.009
273.28
273.118
273.048
273.019
273.009
273.279
273.118
273.048
273.019
273.009
273.283
273.119
273.048
273.019
273.009
273.282
273.119
273.048
273.019
273.009
273.288
273.121
273.048
273.019
273.009
273.286
273.12
273.048
273.019
273.009
273.292
273.122
273.049
273.019
273.009
273.291
273.122
273.049
273.019
273.009
273.295
273.123
273.049
273.019
273.009
490.901
485.122
491.448
485.869
493.057
487.833
496.502
491.429
502.774
497.656
512.975
513.247
509.866
508.365
514.264
515.245
514.591
515.466
555.965
569.185
572.072
572.758
572.917
541.461
565.054
571.068
572.509
572.839
556.31
569.274
572.094
572.764
572.918
541.993
565.202
571.097
572.519
572.841
556.752
569.378
572.117
572.769
572.92
542.759
565.388
571.139
572.528
572.843
557.659
569.581
572.162
572.779
572.923
544.054
565.689
571.203
572.541
572.846
559.177
569.899
572.231
572.795
572.927
546.083
566.136
571.297
572.56
572.851
560.582
570.089
572.256
572.796
572.925
550.462
567.027
571.471
572.593
572.857
560.201
570.05
572.255
572.798
572.927
548.799
566.683
571.407
572.583
572.856
560.704
570.095
572.252
572.794
572.924
551.253
567.205
571.504
572.598
572.857
560.814
570.119
572.257
572.794
572.924
551.409
567.256
571.509
572.598
572.857
389.719
432.519
430.525
385.917
368.456
370.112
372.171
375.346
384.936
389.618
419.75
431.446
429.644
442.203
401.431
407.121
387.334
391.395
379.58
382.018
325.435
309.151
277.926
275.819
276.036
275.455
276.81
319.304
309.804
298.279
297.753
292.142
284.565
289.625
285.259
281.48
282.457
280.42
319.035
295.881
284.051
282.826
287.618
285.634
281.826
280.221
278.274
277.394
280.518
279.792
322.559
303.554
309.674
294.46
289.071
297.539
281.69
278.103
282.869
310.171
299.052
290.915
283.9
277.187
300.933
293.729
287.272
281.53
276.019
277.262
276.427
275.469
274.479
273.492
275.462
275.001
274.455
273.877
273.292
275.653
275.157
274.568
273.945
273.315
275.15
274.752
274.277
273.771
273.257
276.315
275.682
274.942
274.166
273.388
306.078
295.758
288.338
282.173
276.606
298.876
290.359
284.428
279.626
275.304
292.797
287.612
282.883
278.75
274.952
290.607
284.828
280.675
277.332
274.434
286.702
282.196
278.914
276.29
274.066
282.586
280.384
278.126
275.996
273.987
286.302
282.94
279.747
276.895
274.284
282.923
280.476
278.089
275.929
273.956
280.157
278.605
276.941
275.319
273.765
280.882
279.096
277.24
275.475
273.813
279.3
277.961
276.503
275.065
273.681
306.573
296.47
289.011
282.629
276.766
291.38
286.862
282.538
278.607
274.907
282.262
280.211
278.055
275.975
273.985
281.302
279.519
277.603
275.723
273.903
285.106
282.343
279.519
276.841
274.281
283.61
281.289
278.835
276.452
274.147
280.523
278.961
277.243
275.524
273.838
279.189
277.927
276.518
275.094
273.695
277.551
276.647
275.616
274.56
273.517
276.81
276.07
275.214
274.326
273.441
279.405
278.066
276.594
275.129
273.704
278.82
277.631
276.304
274.965
273.651
308.718
298.148
290.306
283.515
277.111
297.068
291.048
285.477
280.434
275.592
301.533
293.756
287.269
281.498
276.013
290.569
286.476
282.397
278.566
274.879
286.377
283.378
280.279
277.307
274.438
292.783
287.986
283.355
279.115
275.085
280.405
278.863
277.17
275.478
273.823
277.409
276.54
275.545
274.522
273.506
281.357
279.577
277.654
275.758
273.915
474.965
529.733
466.164
523.096
438.08
499.836
446.22
506.256
450.944
432.747
495.724
458.23
421.765
403.375
463.156
424.424
496.098
515.18
540.511
549.294
487.516
505.828
535.218
544.769
511.646
474.061
482.019
456.535
492.222
527.04
530.063
532.857
478.358
487.695
501.159
502.98
442.466
450.089
538.338
544.585
503.59
515.565
551.186
557.573
535.455
558.927
557.981
567.481
526.036
554.965
553.769
565.598
506.962
546.326
532.389
557.748
549.727
564.372
556.758
566.908
424.262
414.332
438.484
420.201
392.476
383.979
404.708
388.675
471.293
453.231
456.285
446.462
449.317
423.651
453.738
424.63
414.112
391.556
417.802
392.251
482.309
457.075
486.952
458.284
503.983
546.073
489.315
534.01
490.107
538.388
481.803
527.865
513.957
550.647
493.408
537.33
518.218
552.666
494.676
538.916
513.739
487.478
549.433
530.966
501.495
476.719
543.831
523.701
484.193
463.016
534.398
513.972
409.71
379.48
440.173
472.583
524.407
374.739
402.815
429.706
458.128
506.772
377.176
406.33
437.441
471.408
516.438
450.408
424.526
472.603
446.984
445.832
421.078
472.356
445.96
439.123
415.336
472.191
445.368
364.378
350.922
391.183
374.425
415.66
395.689
441.438
418.262
476.267
450.013
365.742
350.503
394.657
380.535
424.524
408.423
455.325
435.292
485.981
462.343
400.877
393.528
401.346
395.149
368.251
349.408
368.56
349.2
434.257
430.708
433.239
427.365
400.102
395.709
400.684
396.584
368.342
349.733
368.696
350.06
432.837
431.614
433.614
432.857
467.811
463.49
497.272
491.622
465.608
458.347
494.837
485.632
467.594
465.069
498.285
494.073
466.782
464.993
497.315
493.42
408.446
401.39
425.72
416.196
405.159
397.001
424.231
412.981
398.896
389.931
422.381
408.395
339.557
331.816
360.81
351.299
380.183
369.087
400.083
387.7
423.453
404.558
336.36
327.273
366.383
354.115
390.053
374.165
410.53
390.416
426.517
401.945
361.715
354.585
374.476
364.612
389.779
376.319
413.645
391.527
342.784
324.184
347.825
327.259
342.695
326.344
348.594
329.606
347.717
340.55
346.939
339.55
329.341
333.845
371.27
375.901
401.82
407.587
351.922
357.333
351.821
355.39
336.851
340.188
310.738
295.994
312.702
296.936
312.31
296.068
314.152
297.069
315.202
296.239
318.646
297.987
321.178
299.206
322.216
299.556
343.743
335.887
350.443
338.17
365.577
357.321
374.854
360.786
332.039
320.011
327.358
318.544
355.278
339.692
357.648
340.034
381.656
362.985
384.677
363.484
335.365
321.01
337.039
321.164
315.216
295.862
306.076
291.966
312.128
294.506
305.091
291.419
317.433
296.918
306.702
292.246
318.551
297.483
306.736
292.209
307.215
303.058
294.07
291.512
308.513
304.439
293.995
291.568
310.707
307.245
293.993
291.97
336.377
355.392
321.771
308.685
292.861
352.548
335.202
320.49
307.36
291.815
352.045
332.581
316.489
303.838
290.778
298.786
294.726
288.797
285.46
300.362
296.171
289.093
285.81
303.134
298.718
289.647
286.372
343.77
332.827
327.847
319.211
314.651
308.546
302.819
298.118
289.567
286.322
341.971
328.035
324.312
313.005
310.256
301.759
299.187
292.701
288.669
285.053
322.744
308.33
323.512
307.902
341.637
323.816
342.597
323.034
309.226
297.77
308.661
297.969
325.07
308.12
325.246
308.063
343.992
323.048
344.267
323.08
310.477
298.015
310.504
297.893
297.585
289.53
287.791
283.323
297.738
289.695
288.022
283.595
297.893
289.649
287.663
283.14
298.459
289.701
287.889
283.334
291.924
290.866
280.651
280.152
293.467
292.114
280.985
280.387
295.517
293.221
281.364
280.097
323.619
317.311
312.005
307.245
303.343
299.897
293.876
290.741
280.999
279.008
316.205
309.924
303.859
299.389
294.892
291.74
287.114
284.759
279.014
277.417
283.899
277.669
274.932
273.776
284.317
277.8
274.961
273.774
283.774
277.622
274.918
273.773
284.309
277.787
274.97
273.785
283.497
277.526
274.935
273.798
284.188
277.73
275.005
273.815
284.408
277.775
274.941
273.768
284.397
277.746
274.894
273.743
283.407
277.488
274.932
273.802
282.175
277.132
274.836
273.806
282.949
277.359
274.93
273.83
282.068
277.112
274.844
273.824
283.716
277.568
274.911
273.774
282.247
277.141
274.82
273.795
283.833
277.584
274.893
273.766
282.255
277.128
274.809
273.793
283.187
277.449
274.898
273.794
282.273
277.183
274.844
273.816
283.04
277.401
274.89
273.796
282.206
277.162
274.836
273.816
282.816
277.327
274.89
273.808
282.145
277.14
274.831
273.819
282.36
277.193
274.871
273.822
282.001
277.098
274.832
273.827
281.917
277.075
274.848
273.839
281.477
276.98
274.725
273.842
280.987
276.877
274.688
273.84
281.488
276.979
274.729
273.846
281
276.877
274.689
273.841
281.489
276.974
274.723
273.845
281.002
276.872
274.684
273.84
281.443
276.957
274.734
273.85
280.958
276.857
274.683
273.841
281.324
276.928
274.749
273.858
280.825
276.83
274.68
273.842
281.107
276.87
274.715
273.842
280.518
276.755
274.665
273.834
281.188
276.896
274.731
273.85
280.641
276.791
274.674
273.839
281.05
276.845
274.685
273.827
280.447
276.726
274.646
273.824
281.015
276.819
274.668
273.817
280.405
276.697
274.629
273.814
273.317
273.133
273.053
273.021
273.01
273.316
273.132
273.053
273.021
273.01
273.318
273.132
273.053
273.021
273.01
273.317
273.132
273.053
273.021
273.01
273.318
273.132
273.053
273.021
273.01
273.316
273.132
273.052
273.021
273.01
273.313
273.131
273.052
273.021
273.01
273.308
273.129
273.051
273.02
273.01
273.317
273.132
273.052
273.021
273.01
273.318
273.132
273.052
273.021
273.01
273.319
273.132
273.053
273.021
273.01
273.32
273.132
273.053
273.021
273.01
273.314
273.131
273.052
273.02
273.01
273.315
273.131
273.052
273.02
273.01
273.31
273.129
273.051
273.02
273.01
273.312
273.129
273.052
273.02
273.01
273.319
273.133
273.053
273.021
273.01
273.321
273.133
273.053
273.021
273.01
273.32
273.133
273.053
273.021
273.01
273.321
273.133
273.053
273.021
273.01
273.32
273.133
273.053
273.021
273.01
273.322
273.133
273.053
273.021
273.01
273.321
273.133
273.053
273.021
273.01
273.322
273.133
273.053
273.021
273.01
273.321
273.132
273.053
273.021
273.01
490.315
487.113
491.177
487.944
493.209
489.928
496.881
493.293
502.828
498.821
512.381
512.696
509.305
508.102
513.849
514.818
514.445
515.313
555.999
569.186
572.068
572.757
572.916
541.779
565.071
571.061
572.506
572.838
556.367
569.277
572.09
572.762
572.918
542.327
565.223
571.091
572.516
572.84
556.834
569.382
572.114
572.768
572.919
543.099
565.41
571.134
572.525
572.842
557.732
569.582
572.159
572.778
572.922
544.342
565.703
571.198
572.538
572.845
559.18
569.891
572.227
572.793
572.927
546.227
566.131
571.289
572.558
572.85
560.484
570.07
572.251
572.795
572.925
550.293
566.987
571.461
572.591
572.857
560.116
570.032
572.25
572.797
572.927
548.712
566.652
571.398
572.58
572.856
560.633
570.081
572.249
572.793
572.924
551.116
567.174
571.497
572.596
572.857
560.789
570.114
572.256
572.794
572.924
551.359
567.245
571.507
572.597
572.857
388.15
430.769
425.131
381.383
368.075
377.11
365.755
376.869
398.782
422.522
403.277
424.312
273.118
273.171
273.299
273.549
274.009
274.832
273.161
273.229
273.388
273.69
274.219
275.106
273.089
273.076
273.137
273.124
273.254
273.244
273.49
273.496
273.928
273.965
274.668
274.665
276.261
278.612
282.287
287.669
293.625
297.673
276.527
278.66
281.626
285.277
288.843
291.108
273.105
273.087
273.065
273.04
273.013
273.152
273.126
273.094
273.057
273.019
273.265
273.219
273.162
273.099
273.033
273.485
273.4
273.295
273.18
273.06
273.889
273.73
273.536
273.325
273.109
274.606
274.311
273.958
273.579
273.193
273.143
273.119
273.088
273.054
273.018
273.203
273.168
273.125
273.076
273.026
273.344
273.283
273.209
273.128
273.043
273.608
273.5
273.367
273.223
273.075
274.071
273.876
273.642
273.389
273.13
274.842
274.5
274.093
273.66
273.22
273.08
273.066
273.049
273.03
273.01
273.068
273.057
273.042
273.026
273.009
273.122
273.101
273.075
273.046
273.016
273.11
273.091
273.068
273.042
273.014
273.225
273.187
273.138
273.085
273.028
273.216
273.179
273.133
273.081
273.027
273.434
273.358
273.265
273.161
273.054
273.439
273.363
273.269
273.164
273.055
273.818
273.673
273.495
273.301
273.101
273.852
273.701
273.516
273.314
273.105
274.465
274.199
273.877
273.531
273.178
274.464
274.199
273.879
273.533
273.178
275.841
275.302
274.67
274.005
273.335
277.846
276.89
275.799
274.675
273.557
280.925
279.287
277.481
275.668
273.887
285.311
282.625
279.792
277.029
274.343
289.954
286.052
282.131
278.415
274.821
293.022
288.276
283.638
279.311
275.137
276.068
275.482
274.798
274.081
273.36
277.89
276.927
275.827
274.692
273.563
280.391
278.887
277.208
275.509
273.833
283.419
281.223
278.838
276.47
274.153
286.315
283.421
280.359
277.367
274.454
288.128
284.784
281.297
277.92
274.641
273.119
273.174
273.306
273.564
274.04
274.892
273.162
273.233
273.396
273.705
274.247
275.153
273.09
273.077
273.139
273.126
273.261
273.251
273.506
273.515
273.965
274.012
274.753
274.79
276.365
278.754
282.447
287.786
293.664
297.675
276.596
278.746
281.714
285.344
288.876
291.116
273.106
273.088
273.065
273.04
273.014
273.155
273.129
273.096
273.059
273.02
273.272
273.225
273.167
273.102
273.034
273.499
273.412
273.304
273.185
273.062
273.917
273.754
273.555
273.337
273.113
274.662
274.359
273.995
273.603
273.201
273.144
273.12
273.089
273.055
273.018
273.207
273.171
273.127
273.078
273.026
273.351
273.29
273.214
273.131
273.044
273.622
273.512
273.377
273.229
273.077
274.097
273.899
273.659
273.4
273.134
274.886
274.538
274.122
273.678
273.227
273.08
273.067
273.05
273.031
273.01
273.069
273.057
273.043
273.026
273.009
273.124
273.103
273.077
273.047
273.016
273.112
273.093
273.07
273.043
273.014
273.231
273.192
273.142
273.087
273.029
273.223
273.185
273.137
273.084
273.028
273.448
273.37
273.274
273.167
273.056
273.457
273.378
273.28
273.171
273.057
273.852
273.702
273.518
273.315
273.106
273.895
273.738
273.544
273.332
273.111
274.543
274.266
273.929
273.564
273.189
274.578
274.296
273.952
273.578
273.194
275.937
275.386
274.735
274.046
273.349
277.98
277.009
275.893
274.736
273.578
281.081
279.431
277.598
275.745
273.913
285.437
282.751
279.9
277.104
274.37
290.013
286.122
282.199
278.464
274.84
293.034
288.295
283.659
279.328
275.143
276.133
275.539
274.843
274.11
273.37
277.972
277.001
275.886
274.731
273.576
280.478
278.968
277.275
275.554
273.849
283.489
281.292
278.899
276.511
274.168
286.354
283.464
280.398
277.394
274.464
288.14
284.798
281.31
277.93
274.644
325.365
309.132
278.174
275.978
276.45
275.697
277.142
322.397
316.575
301.647
306.832
287.079
293.644
283.498
285.344
282.253
320.163
297.498
285.671
283.839
288.866
286.337
282.153
280.799
279.357
278.107
281.811
280.628
322.503
303.585
310.176
294.694
289.522
298.429
282.199
278.592
283.61
310.171
299.091
290.97
283.949
277.208
300.942
293.757
287.307
281.56
276.031
277.491
276.626
275.624
274.577
273.525
275.608
275.125
274.551
273.937
273.313
276.024
275.469
274.803
274.09
273.364
275.368
274.937
274.417
273.858
273.287
276.617
275.94
275.139
274.29
273.43
309.749
299.187
291.115
283.992
277.265
305.787
296.383
289.078
282.54
276.275
296.106
290.578
285.215
280.235
275.465
299.308
292.003
286.065
280.658
275.556
284.894
282.358
279.631
276.936
274.307
290.043
286.163
282.212
278.436
274.807
281.99
280.159
278.118
276.051
274.013
283.515
281.33
278.929
276.525
274.169
280.964
279.372
277.572
275.731
273.907
308.101
298.059
290.383
283.569
277.13
292.994
288.342
283.727
279.38
275.178
283.758
281.502
279.047
276.599
274.198
282.243
280.336
278.236
276.123
274.04
286.297
283.401
280.352
277.374
274.466
284.281
281.887
279.31
276.758
274.253
280.834
279.239
277.465
275.667
273.888
279.723
278.39
276.876
275.321
273.772
278.523
277.463
276.23
274.941
273.646
277.451
276.609
275.62
274.578
273.526
280.584
279.07
277.359
275.606
273.867
279.584
278.286
276.806
275.28
273.759
308.857
298.379
290.555
283.713
277.196
297.16
291.174
285.607
280.533
275.631
302.2
294.469
287.907
281.945
276.181
290.836
286.749
282.638
278.732
274.939
286.83
283.801
280.628
277.537
274.519
293.712
288.872
284.091
279.605
275.26
280.881
279.282
277.498
275.688
273.895
277.856
276.922
275.839
274.706
273.568
282.051
280.185
278.129
276.06
274.019
274.421
277.286
280.236
283.235
286.039
288.467
446.794
439.019
412.183
419.42
426.833
415.777
400.569
388.318
470.551
490.278
461.973
479.04
449.491
438.643
463.348
431.953
425.783
400.303
405.947
415.741
406.365
390.984
380.907
454.606
466.88
447.239
457.349
435.689
426.032
444.16
410.924
406.642
383.477
387.326
399.301
392.2
376.819
368.994
430.423
440.46
424.784
433.42
416.322
408.746
423.444
388.328
385.461
365.395
368
380.104
374.384
360.668
354.648
406.276
416.408
402.067
410.955
395.593
388.676
402.747
371.507
369.428
352.006
353.942
365.222
360.662
348.373
343.461
387.586
398.82
384.272
394.651
379.535
373.82
387.98
359.929
358.26
342.786
344.364
354.906
351.453
339.742
335.628
375.28
389.026
372.472
385.041
368.958
364.338
378.555
358.957
355.779
382.381
387.343
351.447
346.264
374.496
365.24
337.15
318.703
336.424
320.338
333.072
332.657
322.917
353.065
350.196
373.939
378.106
346.282
341.665
367.216
359.037
331.663
314.407
331.076
316.078
327.959
327.965
318.342
343.761
341.406
361.31
364.417
338.189
334.26
356.163
349.657
325.528
309.646
324.91
311.021
322.303
322.273
312.933
332.544
330.74
347.004
349.234
328.039
324.415
343.192
337.76
317.67
304.598
317.2
305.609
315.061
314.827
307.2
323.879
322.438
336.254
337.973
320.25
317.139
333.24
328.774
311.448
301.19
311.083
301.823
309.516
309.187
303.124
317.844
316.635
328.835
330.261
314.948
312.526
326.288
322.557
307.57
299.083
307.291
299.574
306.036
305.855
300.756
528.23
549.819
513.883
539.956
494.997
527.819
464.229
502.175
464.45
494.377
492.249
521.995
509.57
535.592
521.985
545.334
482.721
455.839
509.157
470.552
450.228
423.12
475.793
435.388
537.707
546.455
555.216
560.103
523.252
534.234
546.241
553.478
524.157
503.038
494.022
479.784
517.209
537.335
534.487
534.003
484.003
489.238
505.825
504.321
447.752
451.639
542.735
545.64
508.848
516.929
554.472
558.299
552.055
564.314
564.067
569.509
541.844
560.087
558.988
567.419
522.474
551.329
540.217
560.365
552.643
565.395
557.376
567.138
435.825
420.177
446.306
424.08
401.515
388.336
411.262
391.817
479.04
456.917
468.216
452.161
453.402
425.808
454.928
425.302
417.678
393.384
418.856
392.828
486.287
459.103
488.106
458.913
509.696
548.045
491.996
535.073
498.898
541.427
485.945
529.477
516.897
551.694
494.884
537.925
519.074
552.983
495.136
539.104
539.519
515.283
557.526
539.914
524.415
500.551
551.127
531.437
503.486
482.329
540.628
520.25
414.076
375.906
450.096
482.554
528.021
368.841
405.887
440.118
469.423
510.777
375.76
410.175
443.719
476.74
518.493
472.269
434.661
479.406
443.33
465.072
430.255
477.664
441.814
455.581
423.606
475.989
441.141
356.056
340.004
392.274
372.035
423.32
398.755
449.624
420.959
477.945
445.794
361.725
344.443
396.039
378.448
428.553
407.899
458.85
434.061
486.962
459.224
403.543
394.426
403.48
396.45
368.702
347.585
369.805
349.22
436.617
432.414
436.634
429.159
401.393
396.679
401.109
396.92
369.258
350.142
369.014
350.238
434.209
432.737
434.057
433.232
469.691
464.938
498.363
492.518
468.332
459.737
496.235
486.196
468.712
466.042
498.966
494.725
467.165
465.331
497.545
493.643
394.968
365.069
349.796
398.889
366.729
350.886
393.365
363.152
347.36
398.255
365.292
348.727
387.982
358.02
342.233
398.085
363.075
345.434
322.35
308.74
301.578
348.065
327.157
315.771
369.465
342.348
327.517
385.827
354.197
337.351
400.951
362.351
342.482
325.502
309.361
300.804
355.717
331.725
318.013
378.495
347.213
329.245
396.447
358.238
337.027
408.706
364.797
341.353
375.116
364.807
381.38
370.843
410.084
391.165
423.077
400.116
350.196
328.22
351.274
329.75
351.573
330.756
353.244
332.276
352.41
348.778
351.29
346.14
333.927
336.814
374.912
377.091
406.392
409.016
355.094
358.509
354.63
356.382
339.064
341.053
308.278
292.927
312.471
295.173
310.337
293.281
314.335
295.714
313.75
293.827
319.35
297.011
322.066
298.831
322.588
299.465
345.929
335.74
353.358
338.882
371.204
359.305
379.612
362.699
333.299
319.823
326.904
317.115
357.245
340.328
358.282
340.256
384.464
364.233
385.535
363.891
336.503
321.137
337.44
321.226
314.871
294.885
305.429
291.239
309.677
292.476
303.258
289.985
317.675
296.522
306.523
291.918
318.685
297.383
306.698
292.114
294.86
287.252
288.429
284.182
296.537
289.055
288.676
284.697
299.808
293.051
289.385
286.078
326.392
346.782
312.08
301.844
289.385
341.103
321.678
306.38
297.37
287.27
346.529
326.103
310.782
299.58
288.329
282.32
278.907
280.916
278.28
283.941
280.094
281.627
278.903
287.316
282.647
283.076
280.123
329.715
316.783
312.109
301.73
299.876
292.36
292.028
286.289
284.837
281.62
333.831
318.619
315.64
303.454
303.066
294.086
294.071
287.393
285.982
282.363
319.992
304.398
322.968
306.626
339.803
320.043
342.771
322.074
308.342
296.521
305.918
294.671
325.133
307.827
325.309
308.026
344.448
322.981
344.452
323.119
310.283
297.644
310.478
297.82
296.683
288.544
287.115
282.687
295.503
287.352
286.637
282.249
297.574
289.302
287.364
282.877
298.382
289.617
287.806
283.266
276.121
274.797
274.277
275.013
274.02
273.687
277.042
275.411
274.755
275.443
274.315
273.906
278.888
276.692
275.766
276.193
274.734
274.195
304.033
295.041
290.545
292.594
286.71
283.913
285.86
281.746
279.905
281.23
278.152
276.82
276.887
275.027
274.339
304.402
293.86
288.851
293.022
285.819
282.595
286.401
281.29
279.093
281.477
277.933
276.505
276.841
274.921
274.229
282.272
276.975
274.664
273.675
283.081
277.22
274.724
273.683
282.281
276.981
274.672
273.683
283.294
277.295
274.766
273.706
282.204
276.962
274.714
273.716
283.399
277.338
274.835
273.748
283.96
277.533
274.834
273.724
284.25
277.663
274.856
273.727
282.759
277.169
274.791
273.743
281.696
276.89
274.723
273.754
281.898
276.889
274.735
273.753
281.258
276.733
274.682
273.755
283.369
277.383
274.826
273.737
281.996
277.006
274.754
273.762
283.724
277.522
274.864
273.753
282.176
277.084
274.787
273.782
280.949
276.59
274.582
273.678
279.493
276.158
274.476
273.68
280.936
276.586
274.591
273.687
279.601
276.191
274.488
273.688
280.98
276.598
274.619
273.71
279.915
276.286
274.522
273.705
280.854
276.571
274.632
273.733
280.163
276.366
274.561
273.727
280.714
276.554
274.639
273.756
278.432
275.853
274.334
273.681
277.873
275.706
274.274
273.663
278.645
275.918
274.358
273.693
278.097
275.777
274.297
273.672
279.044
276.041
274.394
273.708
278.493
275.902
274.333
273.687
279.546
276.199
274.456
273.734
278.971
276.057
274.384
273.707
280.042
276.374
274.53
273.761
279.408
276.217
274.44
273.73
280.656
276.638
274.607
273.786
280.013
276.494
274.548
273.775
280.401
276.524
274.571
273.773
279.752
276.372
274.498
273.754
280.821
276.719
274.624
273.794
280.2
276.588
274.581
273.79
280.944
276.779
274.648
273.806
280.332
276.654
274.608
273.804
273.28
273.119
273.048
273.019
273.009
273.282
273.119
273.048
273.019
273.009
273.284
273.12
273.048
273.019
273.009
273.287
273.121
273.049
273.019
273.009
273.289
273.121
273.049
273.019
273.009
273.292
273.122
273.049
273.019
273.009
273.296
273.124
273.05
273.02
273.009
273.302
273.127
273.051
273.02
273.009
273.295
273.123
273.049
273.02
273.009
273.299
273.124
273.05
273.02
273.009
273.293
273.122
273.049
273.019
273.009
273.296
273.123
273.049
273.019
273.009
273.299
273.125
273.05
273.02
273.009
273.303
273.126
273.05
273.02
273.009
273.305
273.127
273.051
273.02
273.009
273.308
273.128
273.051
273.02
273.009
273.28
273.118
273.048
273.019
273.009
273.279
273.118
273.048
273.019
273.009
273.283
273.119
273.048
273.019
273.009
273.282
273.119
273.048
273.019
273.009
273.288
273.121
273.048
273.019
273.009
273.286
273.12
273.048
273.019
273.009
273.292
273.122
273.049
273.019
273.009
273.291
273.122
273.049
273.019
273.009
273.295
273.123
273.049
273.019
273.009
490.969
485.21
491.467
485.884
493.061
487.837
496.501
491.429
502.772
497.654
512.972
513.245
509.863
508.362
514.261
515.243
514.588
515.463
556.071
569.214
572.079
572.76
572.918
541.517
565.072
571.073
572.51
572.84
556.303
569.273
572.093
572.764
572.918
542
565.205
571.098
572.519
572.841
556.751
569.378
572.117
572.769
572.92
542.761
565.389
571.139
572.528
572.843
557.659
569.581
572.162
572.779
572.923
544.055
565.689
571.204
572.541
572.846
559.176
569.899
572.231
572.795
572.927
546.083
566.136
571.297
572.56
572.851
560.582
570.089
572.256
572.796
572.925
550.461
567.027
571.471
572.593
572.857