/*--------------------------------*- C++ -*----------------------------------*\
  =========                 |
  \\      /  F ield         | OpenFOAM: The Open Source CFD Toolbox
   \\    /   O peration     | Website:  https://openfoam.org
    \\  /    A nd           | Version:  11
     \\/     M anipulation  |
\*---------------------------------------------------------------------------*/
FoamFile
{
    format      ascii;
    class       volScalarField;
    location    "2.8";
    object      gradTy;
}
// * * * * * * * * * * * * * * * * * * * * * * * * * * * * * * * * * * * * * //

dimensions      [0 -1 0 1 0 0 0];

internalField   nonuniform List<scalar> 
5712
(
11414.7
6581.34
18526.1
12131.7
20197
14942.2
31734
39272.5
41691.9
50961.5
26951
23401
17126.3
13559.9
8591.66
5809.3
19221.1
19723.9
16529
19453.4
25958
23252.6
29887.5
24258.2
8080.71
5844.44
4532.92
3365.09
9691.05
7905.9
5862.48
4726.62
17485.7
18212.2
17918.7
15227.2
14042.9
10908.1
10951.8
12422
17665.8
17560.7
36946.2
38178.1
26255.1
27017.5
14894.1
12562.7
16276.9
11616.9
7571.88
7757.65
6142.77
8420.04
3209.18
3819.13
8434.24
11343.3
5007.6
5792.86
9388.88
15475.2
6488.04
10515.9
2482.32
6272.14
2063.95
4690.13
17444.5
21526.4
17923.2
21389
21365.3
21615.9
21678.4
21287.1
15204.2
20569.1
15695.9
20347.1
17618.6
21214.1
17592.3
21149.2
21809.5
20982.3
21709.9
20765.4
14024.2
20639.5
13526
20704.6
16975.1
19761.5
21445.6
29686.8
17961.3
22701.7
21236.5
32091.7
16105.6
17451.5
21545.8
28618.8
15939.1
16357.8
21785.1
28440.2
4904.11
6355.74
12458.1
21490.6
6132.28
6925.85
16158.5
24635.8
7716.2
7778.47
20649.7
27815.4
23979.9
25934.6
20113.8
19262.8
27455.9
26178.4
24586.7
20563.2
17717.8
31197.9
23817.7
23395
20700.1
20339
35935.5
1925.89
2302.08
4076.98
9067.88
2749.77
3084.76
5701.52
10299.1
4145.42
3501.67
7837.95
11999.1
26077.9
26049.2
23408.7
23297.1
19855
18439.3
14953.3
13343.7
10401
14241.7
23665.5
23088.7
23723.4
23553.4
20474.8
19348.6
16790.6
15130.5
11129.2
14494.1
23395.7
26422.8
23294.5
27018.6
22729.2
23656.6
22146.1
23751.2
21131.8
21531.3
20970.1
20928.5
23095.6
27111.2
22973.2
27066.9
21474.7
24005.8
21279.8
23929.8
21212.9
21484.1
21197.7
21463.7
17683.5
16824.1
11365.5
12587.6
17546.1
16359.5
11177.6
12569.2
17943.4
16790.6
11622.4
12672.1
18018.5
16626.7
11988.4
12695.5
1601.04
1115.8
791.159
947.378
675.302
634.076
2214.5
1379.41
1067.39
1886.18
1549.93
1360.79
2626.65
2275.21
2319.76
3335.71
2788.7
2534.86
25295.4
23258
21765.1
23148
21819.6
20673.3
16537.7
15615.6
15117.2
11113.6
9857.68
9337.63
5069.86
3844.67
3303.76
22784.1
21501.2
20298.9
23222
21570.8
20201.3
17084.9
15007.5
13809.3
11072.1
9090.82
8289.1
5403.23
3837
3125.93
26427.8
25982.9
28696.9
25858.1
29538
25890
35554.1
27175.4
20537.8
20960
20244.1
18836.2
23052.4
21811.3
22572.6
19331.9
22315.3
22241.4
20633.4
22184.2
27658.6
24698.2
27173.7
27554.7
29440.4
30410.3
22604.7
23438.1
20295.5
19688.8
24682.5
25286.1
16169.1
8504.21
15042
9444.71
16401.1
8576.99
14976.7
9371.23
16214.1
8628.33
14966.9
9782.7
14527.8
10246.4
14687.5
10159.3
20886.9
17972.2
20675.9
17892.5
23011.4
20877.9
23149.3
20613
20274.2
14976
21251.2
14827.3
21073.5
17774.2
21310
17561.4
23682
20406.8
23668.4
20129.9
20015.6
14993.4
19927.5
14893.1
13266.4
8650.46
11821.3
7270.72
12405.7
7724.7
11388.1
6766.15
13562.7
9212.12
11993.5
7500.9
13563.8
9564.09
11953.9
7552.27
2465.51
1239.78
4353.13
2077.48
2645.4
1562.49
4651.58
2586.69
3297.24
2442.22
5194.92
3566.77
13113.9
20253.9
9402.05
8984.4
6093.71
19919.5
13940
8139.91
8165.75
4939.79
20616.4
16316.9
13003.5
10060.9
5877.93
618.789
469.582
961.337
598.336
951.812
650.456
1588.95
1205.57
1761.65
1427.47
2567.39
2042.24
20383
20042.2
13933.2
13648.7
9081.2
9443.73
7621.05
7272.52
4163.55
3397.15
19037.6
17595
14885
13370.5
11655.7
10673.5
8808.88
8265.03
5181.32
5400.16
15167.3
12599.6
15210.2
12231.1
18068.6
15250.7
17963.7
14944.5
12841.5
10751.4
12489
10845.1
15181.2
12000.2
15077.7
11970.6
17860.3
15174.9
17673.6
15112.6
13053.4
10552.1
13027
10693.9
9972.86
8762.28
6238.28
6966.51
9628.78
8609.06
5925.73
6621.6
10397.8
8928.83
6402.03
7412.51
10659.5
8937.08
6675.99
7526.95
2093.52
1860.69
1546.87
9344.29
4952.8
4043.81
2009.46
2012.19
1795.6
10030.6
5812.23
4929.91
2733.28
3109.15
3205.53
10926.4
7212.02
6443.27
19290.5
18394.4
17669.8
13475.6
13360.3
13240.8
10040.4
10151
10250.1
8860.87
8736.13
8594.1
12287.9
8850.05
8037.71
16387.8
15459.6
14779.2
12503
11942.2
11592.7
10669
10158.9
9823.44
10571.3
9562.21
8931.78
14887.8
9968.42
9015.12
4492.28
2812.14
2129.4
2028.71
5143.56
3106.52
2266.65
2077.31
4505.81
2800.24
2131.86
2045.54
5260.05
3173.29
2307.9
2093.17
4468.02
2747.5
2113.14
2015.61
5360.84
3205.76
2338.18
2064.34
5811.57
3426.02
2421.9
2185.07
5999.63
3574.93
2518.15
2285.32
4788.78
2943.22
2194.65
2030.78
3693.93
2461.38
1961.48
1952.17
4097
2602.88
2013.05
1864.64
3326.65
2286.2
1868.77
1863.79
5247.67
3198.11
2326.73
2142.58
3909.68
2588.99
2022.04
2023.58
5503.41
3368.49
2417.02
2216.1
3998.05
2678.3
2068.77
2057.58
3205.57
2320.2
1896.08
1912.18
1744.05
1718.2
1608.5
1790.99
3199.1
2297.28
1887.47
1905.02
1843.6
1744.55
1618.45
1801.23
3266.68
2280.41
1883.19
1904.83
2176.14
1841.25
1655.53
1848.74
3172.98
2186.22
1824.7
1934.97
2454.28
1902.72
1696.9
1827.22
2830.06
2079.95
1760.38
1830.84
181.199
1219.24
1218.39
362.893
-1670.76
932.208
1047.77
395.93
441.541
1303.51
1249.42
385.171
-1326.59
1027.95
1075.96
405.344
926.024
1451.71
1301.65
384.838
-751.713
1187.89
1120.28
411.608
1508.24
1623.48
1367.05
420.677
-159.904
1360.54
1179.21
431.196
1868.1
1773.94
1446.39
499.219
-59.4286
1482.99
1233.06
448.164
2000.81
1928.65
1488.26
470.708
-516.664
1592.33
1328.08
477.094
1949.04
1860.09
1457.47
471.335
-535.65
1540.94
1281.33
460.145
2003.66
1977.07
1520.61
435.606
-608.457
1637.9
1363.51
481.051
2055.41
2030.59
1569.4
447.795
-501.017
1693.44
1405.76
494.826
2037.23
1632.43
1169.23
699.322
232.481
2013.34
1629.1
1170.07
700.206
232.789
2061.83
1644.78
1175.47
702.305
233.363
2042.31
1644.93
1178.46
704.305
234.016
2106.93
1662.47
1183.61
706.087
234.475
2077.39
1664.03
1188.41
709.166
235.481
2111.79
1686.24
1201.63
715.999
237.585
2162.39
1718.5
1220.64
725.812
240.606
2154.48
1683.98
1195.4
712.005
236.281
2302.02
1710.59
1203.1
714.95
237.101
2163.74
1678.38
1189.67
708.699
235.223
2298.12
1700.93
1196.77
711.604
236.053
2175.78
1703.61
1207.29
718.186
238.194
2344.16
1729.62
1213.92
720.529
238.83
2224.26
1734.85
1225.16
727.339
241.013
2395.59
1757.43
1229.41
728.442
241.277
2094.79
1640.48
1169.16
698.608
232.21
2204.62
1649.42
1169.39
698.197
232.048
2117.64
1650.2
1173.8
700.771
232.84
2222.65
1656.72
1172.93
699.858
232.535
2163.73
1666.52
1181.13
704.17
233.83
2262.35
1670
1179.25
702.845
233.408
2240.77
1685.45
1188.57
707.504
234.793
2309.84
1684.36
1186.5
706.313
234.411
2314.52
1695.25
1192.8
709.494
235.382
8915.79
13634.8
9398.54
13963
10123.7
14410.5
10662.8
14742.4
10327.7
14284.8
9710.25
10914.3
9671.49
11348.9
9794.61
10869.6
9980.46
11026.4
7857.43
1341.88
285.713
63.8499
11.2731
8726.44
2478.72
600.07
135.686
23.9497
7967.6
1335.43
282.14
62.7907
11.0541
8837.8
2476.01
596.833
134.27
23.4915
8096.55
1337.42
279.963
62.0029
10.8889
8956.95
2479.88
594.126
133.101
23.2451
8091.93
1307.3
271.032
59.842
10.499
8921.75
2445.26
583.353
130.406
22.7439
7746.12
1219.9
252.282
55.8501
9.81807
8517.83
2337.89
559.35
125.356
21.8911
7004.26
1147.15
244.943
55.0965
9.75765
7163.83
2060.54
505.771
115.17
20.2973
7209.9
1161.67
245.09
54.7829
9.67097
7534.45
2162.77
526.222
118.89
20.8443
6934.32
1146.88
246.082
55.493
9.83797
7054.48
2018.3
495.962
113.304
20.0247
6922.72
1140.52
244.583
55.1872
9.77638
7080.19
2011.89
493.242
112.967
19.935
32694.4
46230.5
45200.1
31754.2
18770.6
19732.9
27682.2
28867.9
21606.1
24173.8
34310
46695.9
43326.5
57294.4
28319.8
32232.3
22263.5
23750.7
12096.4
13250
4951.57
3321.49
979.717
776.902
867.186
769.793
917.456
4902.55
4911.73
3002.23
4240.32
4113.28
1823.85
2475.14
2278.62
1532.05
1754.09
1456.68
4404.88
2470.32
1641.66
1462.29
1819.76
1590.83
1271.22
1215.13
1157.2
1026.82
1357.67
1232.99
4577.89
2837.06
3237.33
2116.27
1773.56
2438.09
1298.5
1048.04
1417.69
10149.3
10413.9
10822.9
12411.9
20962.6
7420.91
8655.62
9642.24
11020.9
13003.4
2584.84
3712.61
4586.44
5192.03
5508.47
2063.54
2991.53
3720.52
4224
4482.53
2300.09
3326.01
4124.38
4669.96
4947.57
2046.1
2968.54
3692.53
4190.39
4444.51
2428.52
3502.43
4336.04
4907.85
5201.09
10386.5
10858
10915.4
11821.6
18949.6
10373.6
10657.7
10522
10961.4
12667.4
6952.23
8356.81
9163.97
9938.26
10823.7
9242.32
9842.58
9743.17
9802.06
10131.3
8954.1
9608.13
9462.12
9337.4
9403.77
4572.34
6105.1
7118.57
7790.49
8170.49
5923.51
7417.96
8269.21
8856.56
9270.25
5519.48
7009.48
7840.29
8327.37
8590.53
3922.53
5388.83
6407.72
7071
7415.23
4413.93
5914.98
6891.9
7502.79
7816.55
3750.71
5190.81
6200.37
6850.52
7178.41
9519.16
10302.1
10670.2
11850.8
19226
5920.16
7484.79
8532.19
9471.84
10393.9
4177.07
5698.41
6765.09
7499.29
7920.49
3762.28
5216.85
6277.57
7018.28
7436.96
4565.8
6127.74
7230.53
8057.89
8618.55
4062.21
5584.29
6702.61
7524.98
8029.26
3306.29
4659.98
5688.41
6421.17
6830.74
3175.33
4498.17
5496.76
6186.46
6553.36
3034.94
4315.16
5272.94
5912.84
6237.26
2707.51
3881.3
4777.86
5385.3
5694.88
3518.87
4921.46
5940.87
6622.92
6979.56
3218.43
4549.23
5542.84
6218.79
6573.25
9626.62
10175.8
10630.8
12096.7
20152.8
6549.39
7962.86
9038.17
10292.5
11836.5
7581.22
9024.87
9884.51
11177.5
13788.5
5198.22
6822.49
8023.69
9082.31
9962.95
4471.69
6055.32
7223.64
8141.98
8770.81
5854.03
7444.88
8565.49
9626.93
10685.1
3374.62
4748.2
5782.53
6511.35
6914.54
2758.95
3947.9
4857.9
5481.08
5803.77
3658.14
5095.96
6160.33
6913.38
7341.2
17903.3
11873.4
18456.9
13161.8
23955.9
34104.6
25014.1
33919.8
18995.9
20133.6
16279.1
19424.1
21630
20616.6
27449.3
22573
13765.2
12807.8
6743.15
5730.57
15014.9
13669.5
7751.91
6304.9
18547.5
20071.9
19051.7
17419.1
19374.3
12765.8
10734
12376.9
17541.2
17517.5
36362.5
38043
25497.5
26807.2
15441.1
12676.6
16900.3
11722.6
8183.07
7903.77
13406.9
14793.8
5613.71
6106.74
14774.4
16799.4
7011.07
7720.87
14128.6
19653.7
8209.84
12611.2
2877.57
6990.24
2142.4
4830.17
17743.8
20320.1
17677.6
20680.7
19430
19742.8
20438.9
20232.5
16079
20363.8
18232.9
20076
17386.1
20833.5
17504.4
21025.7
21167.2
20440.6
21519.6
20597.1
14264.3
20502.7
13557.5
20652.9
17819.9
20994.6
21657.6
30048.1
19398.2
24813
21710.4
32872
16483.7
18036.8
21617.8
28771.4
16034.5
16518.7
21795.4
28479.3
18372.8
19863
22958.3
33975.9
18515.2
18970.5
24589.7
34446.6
18292.2
17994.6
26497.7
34234.8
17959.8
18909.9
19093.7
20208.6
30181.9
18195.6
16930.2
20405.3
18507
34450.1
18981.1
19715.3
19462.6
20969.4
37319.6
11150.9
10240.3
10258.4
13197.3
12201.2
11220.9
10637.1
13578.3
13419
11686.8
11140.3
13903.7
17697.4
17110.5
16536.6
16164.5
18976.5
17833.9
15618.4
14114.5
11682
14527.3
18695.8
18581.8
19717.7
19929.5
18825.6
17780.2
16994.3
15128.3
11518.4
14070.6
21447.6
24193.2
22297.4
25813.8
20365.7
21336.1
20997.4
22598.4
20574.8
20821.6
20027.2
19789.4
22604
26522.3
22823.1
26890.6
20933.5
23443.5
21118.7
23764.9
20908.7
21117
21100.9
21352.9
17525.6
16536.3
11387.7
12503.7
17422
16034.2
11340.6
12515.2
17827.9
16618
11607.8
12608.8
17976.6
16570.6
11978.3
12671
9402.86
9544.5
4026.43
3716.45
10489.8
10161
4512.48
4325.38
10232.1
9612.81
5144.71
4974.93
16951.8
16509.6
16444.2
16563.1
16313.2
15868.1
12211.6
10972.6
6060.66
5023.15
18999.3
18306.6
20170
19456.8
15928.5
14833.6
11392.6
9839.76
5581.32
4226.88
21655.2
20657.2
26450.8
23188.4
24041.6
21499.7
32797.4
24832.3
19801.8
16353.7
21514.9
17115.6
19698.8
16646.7
21611
17342.9
20168.3
17945.8
18327.7
17119.4
20860.3
22032.5
25821.6
27141.1
28287.6
30072.9
21250
22956.7
19261.7
19392.9
23158.2
24772.3
13315.2
9711.16
13714.3
9935.51
13602.3
9620
13893.4
9778.96
13571.6
9477.71
13878.8
9973.6
13902.9
10280.5
14485.7
10163.7
17035.3
16632
18749.6
17062.7
19474.8
18726.8
21258.5
19410.2
18470.5
14664.2
17622.3
14525.2
20113.7
17331.7
21023.8
17426.9
22754.2
19797.6
23398.1
19945.1
19122.3
14797.5
19667.6
14831.9
12857.2
9061.45
12023.3
7641.34
12350.4
8787.62
11988
7559.48
13243.4
9362.62
12055.3
7672.44
13450.7
9599.42
11969.2
7608.2
12895.5
13233.8
9096.97
8343.19
13058
13358.1
8949.12
8271.29
13050.1
12833.9
8716.02
8174.32
15167.7
17821.2
16001
11887.8
8471.12
16562.7
15580
17484.2
12000.5
8173.36
18257.1
16281.9
14516.3
12155.9
7487.19
14068.9
15586.3
8374.19
9234.33
13902.1
15121.8
8287.09
9085.63
12943.4
13707.3
7890.77
8146.3
16463.5
15734.9
14993.5
14604.9
15669.3
16361
12259.3
13333.8
7630.64
7552.66
16675.2
15439.3
15154.6
14057.6
13731.4
13399.1
11603.9
11903.2
6990.75
7756.6
14824.6
12930.7
14882.4
12334
16625.1
14283.5
17136.3
14443.2
12996.4
11310.4
13090.5
12114.6
14976.2
12043.7
15013.9
11982.2
17444.8
14928.6
17549.3
15042.2
13066
10795.2
13016.9
10755.3
10470.1
9562.98
6720.94
7703.02
10767.2
10282.1
6885.94
8107.67
10595.1
9286.82
6624.91
7808.62
10715.6
9042.27
6752.23
7652.08
19032.5
19032.9
26843.9
22401.6
18178.1
18338
25705.6
21383.1
15905.1
16691.5
23546.6
19856.1
15381.7
14953
14349.7
14265
16811.1
17417.4
15846.8
15948.3
21586.6
18203.4
14600.6
14009.8
13636.5
13588.4
14147.1
14633.9
15446.8
15191.8
21218.3
16800.1
5980.16
3815.88
2749.87
2482.47
6248.29
3968.7
2842.09
2502.92
5852.61
3732.56
2697.51
2458.75
6182.58
3919.59
2803.57
2461.46
5617.21
3566.45
2603.38
2372.36
6076.03
3805.94
2750.91
2372.18
6229.34
3803.26
2704.95
2407.42
6139.41
3705.98
2613.38
2362.64
5388.57
3413.91
2532.25
2304.42
4089.86
2792.88
2195.17
2156.76
5039.53
3271.82
2447.38
2194.24
3975.26
2798.89
2176.86
2103.85
5579.09
3478.89
2539.77
2319.05
4122.88
2775.22
2169.9
2164.44
5605.88
3462.53
2490.54
2278.08
4065.07
2738.84
2119.5
2106.03
5416.09
3524.78
2572.72
2394.93
4459.2
3093.63
2339.76
2303.8
5245.79
3437.54
2520.13
2354.43
4341.47
3045.13
2313.49
2291.87
5005.49
3296.11
2447.92
2310.48
4255.72
2983.34
2279.53
2290.52
4502.72
3036.89
2305.7
2287.93
4066.42
2878.27
2220.25
2180.44
3794.33
2775.29
2141.07
2096.34
3023.56
2654.13
1893.68
518.776
773.74
2367.81
1733.45
591.887
3071.46
2654.39
1891.41
537.176
970.697
2374.58
1730.09
593.792
3154.63
2636.46
1868.85
508.903
1243.88
2365.98
1706.53
579.05
3126.15
2583.15
1866.48
537.089
1294.72
2320.38
1684.24
577.601
2842.97
2469.6
1849.35
615.605
725.224
2202.34
1644.38
572.912
2288.66
2219.33
1738.56
564.77
-399.863
1899.64
1547.25
553.832
2486.7
2325.98
1792.71
580.212
-206.263
2029.39
1590.66
559.634
2144.51
2135.4
1673.78
496.584
-576.617
1804.24
1492.6
528.586
2095.25
2080.91
1620.13
468.577
-498.69
1745.34
1447.62
510.558
2403.39
1858.29
1298.21
764.675
252.386
2347.56
1843.51
1293.98
763.231
252.005
2402.17
1850.94
1293.04
761.865
251.505
2337.54
1832.26
1286.6
759.306
250.787
2417.93
1844.56
1286.94
758.386
250.403
2326.58
1819.41
1277.9
754.666
249.355
2283.5
1794.16
1264.03
747.776
247.281
2225.54
1759.21
1244.3
737.886
244.296
2383.67
1824.58
1275.43
752.565
248.64
2521.1
1835.9
1273.46
750.492
247.924
2455.41
1845.29
1283.63
756.175
249.676
2580.88
1851.39
1280.64
753.885
248.92
2327.29
1800.18
1262.63
746.297
246.767
2486.08
1814.63
1261.98
744.868
246.25
2276.78
1768.32
1244.45
737.162
244.018
2444.36
1787.05
1246.23
736.993
243.897
2510.53
1879.74
1303.21
766.171
252.761
2687.29
1899.01
1306.69
767.121
252.993
2515.48
1875.14
1299.58
764.145
252.116
2688.78
1894.94
1303.82
765.557
252.501
2534.91
1868.83
1293.83
760.931
251.096
2696.29
1887.02
1298.35
762.642
251.584
2589.84
1866.24
1288.67
757.875
250.114
2707.55
1875.53
1291.61
759.133
250.471
2648.53
1861.94
1285.14
755.974
249.521
11089.4
14577.8
11154.7
14594.4
11295.9
14611.7
11130.9
14454.4
10429
13769.5
9714.57
10865.4
9726.74
11270.8
9785.57
10835.7
9975.35
11014
8501.7
1412.12
296.114
65.6461
11.5405
9154
2583.46
620.774
139.522
24.5287
8471.75
1389.89
290.345
64.2418
11.274
9120.38
2553.18
612.915
137.346
23.9624
8374.73
1366.91
284.681
62.9028
11.0325
9027.18
2516.31
603.282
135.038
23.5592
8153.84
1313.28
272.354
60.178
10.5613
8813.68
2445.23
585.934
131.206
22.8951
7708.61
1214.32
251.62
55.8007
9.8191
8355.28
2320.81
558.041
125.375
21.9201
6984.05
1143.16
244.073
54.9184
9.72961
7131.51
2051.17
503.686
114.764
20.2359
7185.79
1156.27
244.019
54.5932
9.64448
7477.03
2148.84
523.768
118.514
20.7991
6920.36
1144.37
245.53
55.3741
9.81835
7034.95
2012.76
494.638
113.024
19.9794
6917.69
1139.64
244.391
55.1453
9.76931
7073.33
2010.05
492.796
112.87
19.9187
32239.8
45918.9
44126.4
30392.2
23790.9
28273.2
23014.7
28169.5
26600.5
42060.4
28176.3
43050.9
286.929
304.679
344.249
408.131
500.609
626.567
301.939
320.109
360.442
424.952
516.479
638.295
275.57
269.962
294.471
290.793
336.727
337.53
405.471
414.917
503.838
524.498
631.399
655.407
791.554
1001.37
1272.73
1631.59
2044.81
2341.85
793.499
984.025
1211
1465.2
1708.07
1865.49
768.333
1127.5
1417.27
1620.41
1725.04
815.642
1196.44
1503.34
1718.3
1828.96
921.127
1350.14
1695.24
1936.59
2060.72
1091.17
1597.37
2003.31
2286.61
2432.15
1336.61
1952.69
2444.51
2786.79
2962.47
1669.13
2430.38
3034.11
3453.1
3668.29
808.375
1185.95
1490.39
1703.71
1813.55
856.744
1256.29
1578.05
1803.29
1919.2
964.114
1412.42
1772.64
2024.4
2153.85
1135.54
1661.08
2081.92
2375.44
2526.24
1377.98
2011.09
2515.7
2866.84
3047.24
1698.89
2470.84
3082.28
3507.09
3725.8
737.971
1083.1
1361.67
1557.02
1657.66
722.964
1061.14
1334.14
1525.63
1624.28
788.401
1156.69
1453.67
1661.76
1768.89
778.571
1142.34
1435.72
1641.32
1747.17
901.131
1321.15
1659.2
1895.71
2017.36
903.292
1324.37
1663.31
1900.44
2022.4
1084.27
1587.74
1991.73
2273.71
2418.56
1109.49
1624.6
2037.84
2326.2
2474.26
1345.58
1966.49
2462.37
2807.34
2984.26
1400.57
2046.39
2561.71
2919.83
3103.32
1682.75
2451.57
3061.34
3483.83
3700.27
1746.59
2544
3175.5
3612.07
3835.21
2100.33
3041.22
3780.52
4293.3
4558.29
2638.83
3785.51
4675.96
5298.23
5626.97
3313.28
4678.23
5723.34
6473.68
6894.2
4157.74
5715.8
6892.89
7798.05
8377.42
5053.62
6691.34
7920.66
8980.83
9808.46
5669.24
7317.96
8558.72
9726.23
10753.8
2104.08
3044.19
3782.9
4296.61
4563.07
2594.4
3724.64
4604.38
5220.33
5545.73
3165.81
4494.6
5518.16
6247.47
6647.44
3785.84
5295.29
6446.66
7294.56
7790.01
4355.78
5993.41
7234.04
8188.53
8792.04
4716.97
6423.13
7713.36
8738.2
9420.62
289.967
313.898
360.111
431.353
532.105
667.314
305.04
329.505
376.485
448.116
547.151
676.385
278.653
273.163
303.887
300.615
353.056
354.689
429.693
440.695
537.053
559.545
675.926
703.547
840.846
1054.97
1323.43
1669.37
2064.7
2347.42
837.563
1030.56
1254.66
1499.85
1729.51
1872.61
776.492
1139.56
1432.55
1638.01
1743.85
840.47
1233.22
1550.02
1772.1
1886.49
963.895
1413.63
1775.99
2029.82
2160.51
1153.92
1690.86
2122.69
2424.85
2580.37
1422.05
2080.77
2609.06
2978.29
3168.36
1780.33
2598.68
3252.35
3708.97
3944.5
816.72
1198.31
1506.09
1721.82
1832.91
882.079
1293.89
1625.86
1858.49
1978.27
1007.43
1476.84
1854.75
2119.36
2255.58
1198.22
1754.64
2201.64
2514.31
2675.27
1461.27
2136.13
2676.61
3054.35
3248.98
1802.86
2628.23
3286.45
3746.55
3984.37
746.253
1095.34
1377.16
1574.84
1676.69
731.564
1073.83
1350.21
1544.11
1644
813.738
1194.18
1501.19
1716.47
1827.36
804.991
1181.4
1485.22
1698.28
1808.04
945.13
1386.39
1742.09
1991.32
2119.65
949.517
1392.89
1750.35
2000.82
2129.78
1149.69
1685.14
2116
2417.54
2572.72
1179.14
1728.35
2170.29
2479.55
2638.67
1435.71
2101.67
2636.11
3009.61
3201.76
1495.85
2189.71
2746.47
3135.42
3335.44
1804.41
2636.01
3300.9
3765.03
4004.01
1878.47
2744.75
3437.32
3920.38
4168.83
2236.19
3249.91
4055.02
4618.68
4911.68
2788.97
4021.57
4993.01
5680.05
6045.37
3459.56
4917.38
6055.07
6882.87
7348.94
4273.58
5918.18
7187.11
8173.87
8804.92
5122.04
6822.32
8120.47
9245.7
10119.3
5690.89
7362.59
8628.99
9821.69
10868.3
2225.29
3229.85
4026.5
4584.85
4875.86
2723.87
3926.3
4873.08
5542.07
5897.22
3289.38
4691.67
5786.19
6573.51
7006.92
3886.44
5460.87
6677.56
7580.87
8109.54
4420.05
6102.85
7390.31
8385.92
9015.27
4738.82
6461.19
7768.52
8808.69
9501.02
4932.21
3320.1
1043.36
832.122
941.321
830.982
987.504
4554.77
4414.65
2926.92
3679.35
1877.73
2433.78
1606.48
1766.23
1515.07
4248.82
2484.88
1716.06
1541.34
1882.95
1658.01
1334.22
1292.23
1252.5
1116.52
1444.62
1317.97
4521.1
2842.27
3202.81
2147.67
1826.19
2458.81
1369.55
1124.88
1492.72
10146.3
10468.4
10929.8
12587.8
21288.4
7435.12
8705.52
9731.95
11154.5
13179
2763.95
3996.14
4969.43
5654.93
6016.52
2215.99
3226.33
4030.14
4591.61
4882.07
2506.52
3648.1
4554.29
5185.16
5510.37
2215.17
3229.3
4036.83
4599.62
4889.54
2624.82
3811.35
4751.17
5407.52
5748.06
10142.6
11485.2
12379.9
14091
22558.1
10047.4
11618.7
12723.6
14262.6
16833.2
7037.54
9011.68
10492
11883.3
13186.9
8881.92
10887.9
12091.7
13334.5
14408.6
4830.43
6718.44
8145.05
9183.95
9784.48
6069.48
8113.55
9615.04
10786
11554.9
4195.64
5948.64
7292.8
8241.53
8755.14
4584.88
6447.72
7860.71
8862.59
9412.87
3975.81
5671.41
6978.15
7892
8376.95
9416.89
10683.3
11587.9
13298
21645.1
6091.05
7997.13
9453.17
10776.2
11966.3
4444.19
6237.3
7611.62
8617.35
9201.98
4015.07
5679.65
6969.11
7908.8
8446.5
4803.07
6621.48
8018.06
9110.42
9838.73
4279.15
5985.14
7305.84
8307.36
8921.83
3491.45
4969.77
6125.61
6966.29
7439.65
3402.33
4878.97
6034.85
6856.6
7300.13
3314.69
4783.13
5933.45
6735.01
7153.05
2962.5
4290.65
5337.51
6067.42
6446.65
3794.12
5420.6
6682.13
7572.43
8051.14
3472.61
4983.45
6163.94
6997.54
7443.47
9618.55
10346.6
10970.4
12644.3
21162.8
6604.53
8115.58
9301.83
10672.2
12318.1
7626.11
9329.92
10493.9
12104.4
15049.8
5319.14
7075.39
8428.51
9632.71
10616.6
4647.95
6391.24
7738.62
8820.1
9554.08
5999.36
7840.91
9265.3
10620.2
11892.1
3586.51
5108.93
6297.73
7158.01
7638.74
2979.01
4304.49
5348.65
6081.48
6466.57
3890.74
5508.97
6766.65
7687.06
8214.93
10342.1
9721.62
8645.02
7159.79
5173.52
2018.18
18248.6
18598.7
21148
21795.2
17935.9
19058.2
20260
19675
14941.6
18280.9
15600.3
18845.1
17913.4
16171.8
24899.5
17580.5
17796.3
20003.3
20418.7
17016.2
18120.5
19410.9
19015.6
14895.4
22074.5
15472.6
21997.6
18099.2
19620.8
26722.9
16846.6
16938.8
18559.9
18740.9
16354.7
17842.3
18285.5
18368
17104.9
19595.9
17860.8
19629.3
19674.2
21596.9
24128.7
16171.3
16281.9
17287.2
17316.4
15999.9
17721.6
17177
17524.7
16090.1
17199.2
16822.2
16793.7
18062.6
19515.2
20954.4
15456.5
15599.7
16443
16391.6
15769.7
17648.2
16474.5
17003.8
15290.6
14274.5
16050.5
13740
16685.5
16563.7
17414.6
15158
15342
15893.6
15811.6
15446
17015.5
16033.9
16484.1
14646.9
12339.7
15222.7
12120.5
15588.2
14655.9
15845.1
21137.2
20350.5
22131.3
23215.6
19669.1
19700.8
20669.1
19789.9
18733
13902
18717.2
13996.3
16644.6
15156.1
18190.3
20010.1
19447.9
20511.8
21217
19055.2
19245.1
19552.1
18818.4
17463.1
13526.6
17471.9
13636.7
15346.2
13702.9
16927.9
18553
18230.3
18590.1
18922.1
18021.6
18222.9
18126.3
17699
16703.7
13399.8
16525.7
13150
14848.8
12604.7
16787
17227.7
17053.3
17167.3
17305.6
16927.4
17071.3
17026
16696.2
15952
14042.8
15865.7
13728.9
14429.3
12819.4
17354.9
16606.5
16497.7
16421.3
16476.8
16229.4
16366.1
16411.1
16216.6
15914.6
15344.5
15861.9
15208.3
14683.8
13480.1
18173.5
16164.1
16061.8
16012.7
16041.7
15835.3
16148.1
15975.3
15910.9
15934.5
16167
15941.9
16088.2
14887.8
14114.3
19027.4
11228.2
6370.69
18519.1
12138.7
20217.8
14930
31761.4
39286
41741.2
50986
26999.3
23401.6
17133.7
13585.1
8333.32
5544.01
19224.2
19726.2
16527.7
19454.4
25970.8
23258.2
29895.7
24262.4
7914.88
5728.96
4380.32
3263.99
9664.35
7896.47
5861.09
4739.78
17481.2
18207.7
17917.3
15227.6
14038.8
10911
10952.7
12423.4
17667.4
17562.3
36952.9
38182.8
26258.4
27019.8
14895
12564.2
16278.4
11618.2
7573
7758.72
6033.29
8286.09
3123.45
3724.83
8435.87
11355
5021.38
5808.9
9390
15481.1
6493.99
10523.3
2483.64
6275.05
2064.42
4691.25
17445.6
21527.5
17924.5
21390.1
21368.1
21617.4
21680.7
21288.3
15206
20570.2
15696
20348
17619.8
21215.1
17593.3
21150
21811.3
20983.2
21711
20766
14025.5
20640.7
13527.1
20705.7
16976.9
19765.1
21447.3
29689.3
17962.7
22705.5
21238.1
32094.5
16107.4
17454.1
21547.3
28621
15940.8
16359.9
21786.6
28442.3
4824.05
6276.96
12289.1
21306.2
6137.62
6929.58
16173.3
24653.7
7718.59
7780.48
20656.3
27822.3
23980
25935.4
20113.4
19263.9
27459.8
26178.9
24586.6
20562.3
17718.4
31202
23818.6
23395.5
20700.7
20340.5
35938.8
1885.96
2271.11
3993.02
8979.38
2754.04
3088.83
5712.51
10308.4
4147.36
3502.82
7841.56
12001.3
26078.1
26049.2
23408.5
23297
19854.4
18439
14954.1
13344.5
10402.8
14243
23665.8
23088.8
23723.7
23553.6
20475.2
19349
16791.7
15131.4
11130.3
14495
23396.2
26423
23295.1
27018.8
22729.8
23656.6
22146.6
23751.2
21132.6
21531.8
20970.8
20929
23096.1
27111.4
22973.7
27067.1
21475.1
24005.8
21280
23929.7
21213.7
21484.5
21198.4
21464.2
17684.4
16824.8
11366.3
12588.3
17547.1
16360.3
11178.5
12570
17944.3
16791.3
11623.1
12672.7
18019.3
16627.3
11989.1
12696.1
1578.88
1098.38
776.687
942.702
669.792
627.526
2220.79
1382.81
1068.99
1892.21
1553.84
1363.16
2627.24
2275.98
2320.61
3336.76
2790.12
2536.28
25295.5
23258.3
21765.5
23148.2
21820.1
20674
16538
15616.3
15118.1
11114.2
9858.51
9338.56
5070.53
3845.45
3304.5
22784.2
21501.5
20299.3
23222.2
21571.3
20202
17085.3
15008.1
13810
11072.7
9091.45
8289.78
5403.71
3837.46
3126.34
26432.2
25984.2
28700
25859.4
29551.8
25895.4
35566.3
27180.2
20365
20907.9
20041.1
18773.3
23022.6
21783.8
22539.3
19305
22310.2
22237.1
20633.3
22182.5
27642.2
24683.6
27174.7
27555
29443.9
30412.3
22602.9
23437.3
20294.7
19688
24675.3
25282.8
16173.7
8509.65
15040.5
9452.05
16382.7
8572.22
14961.2
9367.63
16202.2
8623.85
14956.6
9778.11
14521.9
10242.9
14684.5
10157.2
20885.2
17971.9
20674.9
17892.2
23013.4
20878.7
23151.2
20613.6
20269.1
14974.8
21244.5
14825.8
21073
17773.9
21309.5
17561.1
23683.3
20407.2
23669
20130
20012.5
14992.4
19925.7
14892.3
13263.3
8648.1
11819.7
7269.5
12402.4
7722.37
11386.2
6764.81
13560.5
9210.14
11992.2
7499.88
13562.2
9562.61
11952.8
7551.42
2453.02
1223.88
4339.06
2059.14
2645.88
1563.58
4651.5
2587.54
3296.41
2442.1
5193.43
3566.19
13114.5
20255.1
9401.71
8982.94
6092.3
19920.4
13940.3
8139.85
8164.7
4938.87
20617.1
16316.9
13002.5
10059.5
5876.77
600.881
447.872
942.093
590.141
953.217
650.235
1589.16
1204.83
1761.95
1428.16
2567.34
2042.73
20383.3
20042.2
13933
13648.3
9080.89
9443.25
7620.44
7272.27
4163.06
3397.11
19037.9
17595.1
14884.9
13370.2
11655.1
10673
8808.05
8264.6
5180.58
5399.71
15167.1
12599.3
15209.9
12230.8
18069
15250.8
17963.9
14944.5
12840.8
10750.9
12488.3
10844.5
15180.9
11999.9
15077.4
11970.2
17860.4
15174.8
17673.6
15112.4
13052.8
10551.6
13026.5
10693.4
9971.99
8761.68
6237.53
6965.86
9627.82
8608.47
5924.92
6620.96
10397.1
8928.28
6401.38
7411.89
10658.8
8936.57
6675.41
7526.39
2056.6
1829.74
1522.05
9293.45
4907.51
4000.26
2006.38
2010.78
1795.61
10026.3
5812.02
4930.16
2734.02
3109.7
3205.98
10926.5
7212.62
6443.98
19290.4
18394.3
17669.8
13475.2
13359.9
13240.5
10039.8
10150.5
10249.7
8860.7
8735.93
8593.91
12287.5
8850.15
8037.95
16387.7
15459.6
14779.2
12502.7
11942
11592.5
10668.6
10158.7
9823.25
10570.9
9562.01
8931.66
14886.9
9968.2
9015.11
4492.83
2812.21
2129.55
2028.14
5142.35
3104.94
2265.94
2076.28
4504.65
2799.75
2131.51
2045.32
5259.43
3173.05
2307.7
2092.99
4466.76
2747.02
2112.84
2015.4
5359.59
3205.33
2337.92
2064.14
5810.33
3425.57
2421.65
2184.9
5998.67
3574.54
2517.93
2285.16
4787.77
2942.76
2194.38
2030.6
3693.27
2461
1961.24
1951.99
4096.02
2602.43
2012.78
1864.45
3325.96
2285.81
1868.52
1863.61
5246.72
3197.68
2326.48
2142.4
3909.08
2588.64
2021.82
2023.41
5502.63
3368.11
2416.8
2215.94
3997.53
2677.98
2068.58
2057.42
3204.97
2320.72
1896.77
1911.8
1742.07
1717.84
1609.03
1789.89
3198.28
2296.85
1887.13
1904.82
1842.92
1744.25
1618.2
1801.14
3265.83
2279.99
1882.9
1904.65
2175.52
1840.91
1655.29
1848.6
3172.21
2185.81
1824.44
1934.76
2453.65
1902.37
1696.66
1827.05
2829.42
2079.57
1760.13
1830.63
181.437
1218.93
1219.18
362.939
-1668.66
930.852
1047.47
395.771
440.903
1303.41
1249.24
385.163
-1327.36
1028.05
1075.99
405.379
925.584
1451.48
1301.48
384.791
-752.013
1187.74
1120.19
411.585
1507.79
1623.18
1366.86
420.624
-160.136
1360.29
1179.07
431.15
1867.63
1773.61
1446.18
499.155
-59.6396
1482.7
1232.89
448.108
2000.41
1928.34
1488.07
470.654
-516.8
1592.05
1327.9
477.036
1948.6
1859.76
1457.27
471.279
-535.807
1540.65
1281.15
460.086
2003.32
1976.79
1520.43
435.56
-608.565
1637.65
1363.35
480.998
2055.11
2030.34
1569.24
447.755
-501.111
1693.22
1405.62
494.778
2035.66
1631.68
1168.9
699.173
232.437
2011.59
1628.17
1169.62
699.998
232.727
2061.78
1644.7
1175.42
702.281
233.356
2042.2
1644.85
1178.41
704.286
234.014
2106.82
1662.39
1183.56
706.064
234.469
2077.27
1663.95
1188.35
709.144
235.478
2111.66
1686.15
1201.57
715.973
237.579
2162.27
1718.41
1220.59
725.785
240.599
2154.34
1683.89
1195.35
711.979
236.274
2301.85
1710.49
1203.05
714.922
237.093
2163.61
1678.29
1189.61
708.674
235.216
2297.95
1700.84
1196.71
711.577
236.045
2175.63
1703.52
1207.23
718.158
238.187
2343.99
1729.52
1213.87
720.5
238.822
2224.13
1734.76
1225.11
727.311
241.005
2395.43
1757.33
1229.35
728.414
241.269
2093.18
1639.84
1168.9
698.492
232.175
2203.06
1648.88
1169.18
698.107
232.026
2117.62
1650.12
1173.75
700.75
232.836
2222.66
1656.63
1172.88
699.843
232.537
2163.63
1666.44
1181.08
704.147
233.825
2262.26
1669.92
1179.19
702.825
233.406
2240.63
1685.36
1188.52
707.478
234.787
2309.69
1684.27
1186.44
706.289
234.406
2314.35
1695.15
1192.75
709.468
235.375
8867.47
13580.7
9400.78
13964.6
10125.1
14411.3
10663.7
14742.9
10328.4
14285.4
9710.83
10914.9
9672.11
11349.5
9795.17
10870.1
9981.03
11027
7846.4
1332.82
283.393
63.3182
11.1793
8711.01
2473.01
598.451
135.301
23.8796
7965.21
1336
282.247
62.8075
11.0562
8836.21
2475.42
596.626
134.212
23.4801
8095.99
1337.47
279.971
62.0012
10.8881
8956.52
2479.67
594.049
133.076
23.2399
8091.98
1307.31
271.03
59.8397
10.4983
8921.78
2445.21
583.327
130.396
22.7415
7746.37
1219.93
252.285
55.8498
9.81789
8518.05
2337.92
559.348
125.353
21.8902
7004.61
1147.21
244.954
55.0986
9.75798
7164.18
2060.63
505.791
115.174
20.2979
7210.23
1161.72
245.098
54.7842
9.67113
7534.77
2162.84
526.235
118.892