/*--------------------------------*- C++ -*----------------------------------*\
  =========                 |
  \\      /  F ield         | OpenFOAM: The Open Source CFD Toolbox
   \\    /   O peration     | Website:  https://openfoam.org
    \\  /    A nd           | Version:  11
     \\/     M anipulation  |
\*---------------------------------------------------------------------------*/
FoamFile
{
    format      ascii;
    class       volScalarField;
    location    "2.8";
    object      gradTx;
}
// * * * * * * * * * * * * * * * * * * * * * * * * * * * * * * * * * * * * * //

dimensions      [0 -1 0 1 0 0 0];

internalField   nonuniform List<scalar> 
5712
(
-6428.15
-8214.96
-15295.8
-22309.7
-22755.4
-39286.7
-17531.7
-44646.7
-14287.7
-31381.6
-21353.8
-32466.4
-19177.6
-25113.1
-8427.23
-9626.44
-14295.4
-16370.1
-18517.8
-18371.9
-14619
-18100.4
-21544
-19367.3
-5207.46
-3891.04
-6481.49
-4339.29
-12057.9
-9594.52
-20625.1
-14886.7
-16006.5
-16612.3
-17720.5
-16811.6
-6140.31
-4848.9
-37970.9
-50846.3
-24527.8
-30121.9
-51169
-66387.5
-26492.2
-30323.3
-28098
-39710.7
-24498.7
-32500
-14292.9
-23087.1
-2718.28
-914.23
-2867.65
-1031.65
-8214.16
-3307.8
-11299.9
-4146.86
-8003.64
-3076.38
-8574.44
-2744.88
-14643.8
-4652.93
-18909.4
-6370.57
-23339.1
-11553
-21362.5
-12675.5
-21986.1
-14221.5
-19327.3
-14586.6
-16721.8
-9926.62
-16699.9
-8473.93
-22032.5
-14136.6
-22078.4
-14279.7
-20399.7
-15462.7
-20644.4
-15545.9
-18069.5
-11495.6
-18719.9
-11788.8
-17040.1
-7345.11
-7841.01
-9499.76
-17113
-8015.72
-6810.05
-9580.91
-18055.1
-7324.96
-8912.23
-9599.33
-18956.4
-7509.35
-9707.71
-10046.8
-3523.7
-3842.1
-1178.06
-2275.08
-10349.7
-10930.3
-3966.35
-6958.64
-13253.2
-14768.1
-6301.06
-10678.9
-12220.9
-1209.56
-13320.2
-16269.4
-8745.75
-875.144
-7510.9
-11886.6
-19076.2
-12972.5
-9621.1
-11601.4
-10045.8
-8581.46
-13415
-3413.56
-2835.88
-1942.18
-1930.91
-9654.68
-8216
-5753.33
-5484.68
-12096.7
-10365.6
-7519.31
-6766.43
-5886.19
-7457.07
-12086
-12486.1
-13776.4
-12554.5
-15510.3
-13572.8
-10310.5
-8670.63
-8954
-9540.08
-11776.7
-9471.84
-10676
-7937.57
-9183.98
-6469.48
-10574.4
-6990.13
-10131.7
-4944.96
-8663.07
-9491.8
-12444.6
-16354.6
-13679.3
-19981.8
-6860.62
-7720.78
-8948.84
-3109.79
-7706.9
-14925.8
-7303.61
-15965.1
-13536.2
-24639.3
-13768.7
-26106.2
-5784.73
-12757.9
-5241.51
-13559.9
-7956.14
-6120.33
-10997.4
-4445.03
-8257.71
-1897.52
-9627.38
-984.941
-7620.45
-9075.45
-11511.3
-5363.94
-6285.34
-10667.8
-10169.2
-7011.42
-2286.35
-2035.2
-1851.61
-1636.37
-1515.69
-1373.74
-6803.35
-5686.33
-4996.64
-4325.34
-3554.02
-3131.64
-8437.87
-7393.94
-6882.1
-5224.74
-4356.47
-4157.43
-6641.08
-5983.52
-5876.16
-10976.3
-8538.26
-7274.09
-10218.6
-7736.89
-6371.9
-10751.9
-8661.21
-7610.83
-6511.89
-4399.34
-3485.93
-15802.5
-13915.8
-12211.9
-10047.8
-8530.42
-7218.23
-8800.77
-7004.01
-5721.43
-7289.87
-5398.91
-4259.4
-7335.12
-4167.09
-2423.95
-10209.7
-13874.7
-8046.11
-10440.3
-10896.5
-16056.4
-9707.26
-14187.1
-66.6664
-753.253
478.981
-113.787
-2974.74
-3386.75
-1235.99
-677.948
-724.386
-2449.86
-9328.89
-13657.4
-6637.66
-3596.69
-9719.36
-9640.94
-14875.3
-16373.6
568.685
4003.12
-7490.74
-7064.56
-7014.21
-5413.88
-1040.81
-561.91
-659.175
-258.614
-2046.88
-279.25
310.654
818.575
-9214.35
-2485.9
-6190.96
-1672.54
-8875.38
-2737.72
-10731.5
-3498.79
-8746.24
-11862.7
-8098.41
-11589.9
-13886.1
-14767.4
-13263.9
-14010.4
-5699.99
-9535.43
-6563.98
-9458.66
-8585.17
-11180.9
-9464.57
-11312.6
-13815.9
-13777
-14468.5
-13851.3
-5749.08
-9246.84
-6249.16
-9434.9
-93.851
-1603.19
-7695.92
-5101.41
476.696
-1185.65
-7132.29
-4528.79
-532.468
-1837.37
-7880.82
-5544.67
-985.496
-2106.59
-7945.37
-5760.31
648.035
755.21
-197.164
-59.0752
2806.89
2862.99
128.6
265.06
435.68
1845.99
-1885.31
-1269.56
10202.2
9426.69
5497.42
4118.73
253.385
10368.1
10786.3
4286.76
6290.66
614.643
-10082
-8032.48
-7313.64
-7029.07
-4539.19
798.739
767.562
-9.20607
-137.77
2527.53
2580.58
-43.1637
-337.481
2525.91
3209.33
-933.465
-1351.72
5126.87
2402.62
8222.07
5254.2
3626.15
2812.02
4048.38
3601.61
-760.078
-1829.07
-3730.73
-2363.48
-1063.06
1037.48
-1145.13
697.281
-2011.92
-630.883
-2594.04
-3006.1
-5316.2
-4902.27
-10052.7
-6120.5
-8086.58
-8208.91
-12275.8
-9991.81
-8135.97
-4910.5
-4151.09
-4167.32
-11829.2
-5299.16
-13009.2
-5936.77
-13686.2
-10199
-14605.7
-10918.2
-9819.24
-4048.14
-10988.2
-4670.87
-6735.86
-5535.63
-5574
-8284.14
-4470.17
-5107.92
-4809.42
-7686.08
-7721.63
-5516.37
-6273.02
-9490.07
-9280.03
-5995.63
-7689.64
-9809.82
825.767
912.161
1039.78
-9.62863
314.988
361.717
3033.71
3313.35
3346.16
155.042
907.286
928.028
3806.82
4380.46
4548.43
-796.733
867.47
1213.59
1345.54
1171.56
873.257
3996.33
4152.57
3909.31
3271.03
3795.82
3771.73
4044.62
4487.04
4431.4
-1675.5
358.427
532.337
-3416.32
-1913.92
-973.391
1113.31
2370.71
3042.84
1018.67
2665.39
3387.04
372.426
2191.16
2722
-2771.81
535.198
939.607
20.0895
41.2515
59.4754
91.7222
275.002
163.341
140.401
141.9
-15.0595
79.8363
200.181
324.2
442.336
301.263
343.976
387.031
-276.634
26.0852
282.72
572.582
141.72
245.052
334.641
394.935
26.2074
149.211
168.393
170.682
-236.232
-6.92056
134.023
235.869
-1052.48
-217.777
123.986
366.186
-1644.59
-384.011
24.7175
617.322
-752.218
-96.8122
207.437
522.29
-1360.8
-294.105
6.15891
543.516
-1111.55
-257.933
146.403
451.71
-1837.66
-455.226
23.0767
723.86
-1234.27
-340.544
129.719
532.649
-1976.03
-520.324
-0.557172
757.117
-1.48038
23.0188
50.7602
113.823
29.4405
32.3111
32.4178
104.77
47.913
80.6525
154.206
305.536
148.868
111.444
98.5212
282.859
-477.379
-61.4332
171.909
523.975
-243.505
22.3788
132.546
499.891
-139.025
118.934
252.446
522.069
-67.1832
95.0442
116.214
504.301
-1185.77
-228.227
47.4983
703.647
82.8925
46.9154
36.7666
78.4949
169.969
69.9484
38.1204
36.4569
162.601
110.747
83.9516
203.879
430.972
185.628
97.435
94.4567
69.1985
120.955
117.838
336.24
534.712
259.929
146.957
149.192
-157.302
106.777
148.14
466.234
395.377
279.049
175.339
190.359
-649.842
3.82173
90.4192
453.206
70.6703
238.855
165.811
197.304
-1377.98
-142.234
80.5269
526.416
-461.326
57.4688
109.472
186.715
-1084.43
-50.3247
93.0739
491.982
-301.812
137.803
142.814
200.833
-1648.79
-256.957
40.5132
570.109
-608.373
-22.9804
72.3433
174.541
-1851.71
-372.679
-15.9614
562.778
-746.757
-112.808
23.1153
150.631
41.2422
19.0811
10.3737
6.44283
4.85732
54.7116
29.4772
17.0882
10.8747
8.25072
98.3796
44.4432
24.1072
15.053
11.4324
124.254
66.1358
38.364
24.5286
18.6678
130.304
55.6497
29.8149
18.5989
14.1613
167.522
87.7906
51.0283
32.7965
25.0433
88.2885
45.093
26.0896
16.7964
12.8328
61.8746
26.209
13.9241
8.72526
6.6043
131.902
57.0687
31.0832
19.5824
14.8527
62.7023
23.2884
11.9738
7.39289
5.56924
139.138
66.5667
37.8848
24.2166
18.4721
59.1807
23.1836
12.277
7.63596
5.74497
100.976
37.1245
18.7847
11.5663
8.72443
59.2757
20.7695
10.4695
6.45794
4.87295
86.555
23.4192
9.56765
5.4005
3.93412
47.7034
11.016
4.10542
2.22688
1.59357
34.2491
14.3687
7.54179
4.59663
3.43963
24.7571
11.4161
6.25878
3.86513
2.9018
83.6902
36.1651
19.4523
12.0157
9.06482
63.9809
30.1562
16.8103
10.4706
7.88631
117.159
44.5249
22.9925
14.0098
10.5409
87.141
41.7214
23.4968
14.6846
11.1343
106.601
51.2772
29.3621
18.7036
14.288
59.6464
31.9008
18.5473
11.7296
8.9765
55.5763
28.2394
16.5161
10.623
8.11453
-357.457
-468.901
-819.305
-1152.91
-890.028
-1453.04
-404.536
-1209.27
225.057
-316.335
-768.851
-1236.85
73.0359
1.22402
-1136.09
-1773.52
-1412.49
-2007.28
-581.269
-134.276
-30.1332
-6.63238
-1.65722
-206.765
-89.1478
-12.7665
-3.32843
-1.41713
-1786.14
-410.872
-92.5226
-20.2643
-5.06989
-497.736
-131.367
-31.4698
-6.58072
-1.74911
-3008.37
-693.566
-156.579
-34.4007
-8.58696
-784.196
-220.904
-52.9167
-12.1433
-3.02515
-4053.08
-937.266
-212.426
-46.8022
-11.6942
-909.944
-277.017
-68.53
-15.9184
-3.96085
-5088.57
-1188.45
-271.183
-60.0368
-15.0608
-999.272
-334.744
-85.3445
-20.1024
-5.06224
-6085.24
-1465.62
-339.046
-75.6789
-19.0636
-1509.04
-459.733
-113.082
-25.8628
-6.44748
-5643.42
-1353.77
-311.775
-69.3076
-17.4059
-1189.62
-392.274
-99.2147
-23.114
-5.76687
-6294.52
-1518.98
-352.113
-78.7218
-19.8596
-1699.17
-502.18
-121.821
-27.4904
-6.8377
-6571.01
-1572.82
-365.165
-81.6103
-20.5774
-1757.92
-521.721
-127.752
-26.7853
-7.052
-518.903
-6762.23
-6174.01
-2232.7
1590.35
2725.35
7614.1
11136.6
1674.27
8158.27
-1575.89
2552.86
2450.92
4827.16
9080.69
12854.9
13760.6
17263.9
5614.73
7271.57
-19687.3
-14288.3
-4919.57
-3908.96
-2818.35
-4042.46
-3724.06
-12201.2
-11859.3
-10065.5
-11044.7
-9219.88
-6581.62
-8506.01
-5723.69
-4845.31
-5922.04
-4066.45
-19727.3
-10387.1
-3758.06
-6379.83
-8549.33
-6005.24
-6608.07
-4935.41
-3039.76
-4305.4
-4531.9
-4889.63
-19385.2
-12792.2
-12196.5
-8851.52
-8852.18
-9246.9
-4082.14
-5407.42
-6765.61
-14240.7
-12562.5
-10845.2
-10382.7
-9294.86
-9352.59
-6487.79
-5165.75
-4102.87
-2186.5
-4353.07
-3620.32
-2722.46
-1702.07
-583.635
-3495.61
-2931.31
-2209.73
-1375.31
-467.598
-2505.92
-2086.12
-1560.13
-964.324
-326.461
-3618.15
-3033.81
-2283.27
-1417
-480.437
-3310.07
-2757.51
-2067.01
-1282.06
-435.381
-7942.86
-6206.03
-5016.94
-4846.23
-5450.4
-6553.14
-4910.11
-3600.22
-3085.3
-2208.81
-6301.82
-3800.72
-2689.02
-1936.96
-963.355
-5703.43
-3891.07
-2641.79
-1979.03
-1195.85
-4312.69
-2711.03
-1712.84
-1218.87
-609.971
-5222.12
-3914.58
-2719.6
-1637.58
-567.535
-5791.22
-3717.77
-2448.9
-1487.26
-566.57
-3754.28
-2231.88
-1336.79
-727.018
-247.695
-4000.04
-3095.55
-2187.9
-1314.76
-445.31
-4733.52
-3539.67
-2420.12
-1414.96
-471.487
-3391.56
-2644.4
-1872.29
-1119.1
-374.938
-13203
-10249.1
-8515.9
-7872.84
-7819.45
-7692.44
-5621.74
-4181.48
-2905.86
-1345.56
-3135.29
-2462.21
-1772.9
-1088.05
-377.135
-5420.46
-4350.19
-3205.7
-2010.38
-710.302
-7038.84
-5565.76
-4140.75
-2701.18
-1037.87
-5129.12
-4154.1
-3101.17
-1973.56
-705.925
-5738.39
-4707.38
-3529.42
-2230.79
-782.964
-4304.94
-3530.88
-2629.56
-1639.62
-564.589
-2624.82
-2119
-1544.33
-939.937
-316.815
-3795.89
-3134.13
-2330.51
-1437.85
-487.381
-3862.81
-3086.42
-2240.58
-1369.4
-466.494
-4243.59
-3458.06
-2556.43
-1583.13
-542.677
-13663.2
-11536.6
-9895.77
-9143.28
-8319.34
-8950.33
-6484.01
-5104.29
-3899.91
-2054.55
-9083.78
-7291.34
-5674.71
-4319.02
-2164.45
-7004.63
-5364.12
-4100.63
-2848.61
-1187.44
-7420.51
-5977.48
-4512.55
-2966.75
-1130.34
-7258.47
-5512.4
-4186.44
-2895.97
-1193.29
-3514.99
-2854.63
-2119.87
-1330.83
-465.739
-4774.02
-3954.07
-2955.92
-1835.69
-625.606
-5840.23
-4758.84
-3547.54
-2233.68
-781.859
-5406.87
-10990
-11489.3
-31381.7
-11354
-42085.1
-6180.36
-14967.9
-11368.8
-8795.5
-18822.2
-15717.4
-11377.6
-10748.5
-21161.4
-16806.3
-3975.1
-2948.88
-7673.58
-5263.92
-8913.09
-6711.52
-23851.1
-17597.3
-14703.4
-11188.4
-15105.4
-8995.43
-1169.33
-3625.73
-39162
-51326
-23708
-29977.1
-51848.2
-66657.6
-25589.4
-30104.9
-29144.1
-40246
-23757.9
-32441.7
-15713
-23755.9
-1891.51
-497.923
-3315.76
-1130.36
-6434.02
-2865.22
-13035.4
-4701.84
-2839.78
-1605.09
-7094.86
-2227.14
-14674.2
-4605.09
-19083.5
-6419.65
-16118.9
-8339.36
-18520.8
-11027.6
-14762.2
-10560.6
-16510.4
-12832.4
-14732.6
-8624.06
-11677.6
-6014.78
-20932.5
-13391.7
-21803
-14075.5
-19279.5
-14700.2
-20345.4
-15338.1
-17335.2
-10891
-18545.8
-11621.6
-16084.5
-7080.14
-6990.52
-9187.4
-14403.3
-7232.04
-5225.98
-9011.17
-17797.7
-7259.54
-8515.57
-9445.46
-18925.3
-7504.66
-9595.72
-10001.7
-1089.33
-976.05
-261.635
-1146.42
-4423.1
-4563.14
-2753.89
-5439.92
-2460.84
-3068.6
-4264.4
-8048.57
-11912.1
-9622.34
-9145.78
-11362.6
-7443.05
-7590.97
-8075.02
-6695.43
-13143.2
-11306.9
-11325.9
-9417.3
-6490.4
-5532.56
-12143.5
-1051.27
-789.962
-584.141
-654.489
-4109.1
-3270.66
-3464.7
-3052.76
-578.673
520.485
-4089.34
-3210.3
-10097
-10730.7
-9414.66
-8617.04
-6934.18
-5041.37
-9045.51
-7216.04
-8015.43
-6281.37
-11453.5
-11695.8
-9748.56
-7680.79
-7176.77
-4918.95
-6289.53
-4017.71
-9332.19
-5701.09
-9188.62
-5087.45
-8186.6
-9357.87
-12945.7
-17254.5
-13651.9
-19940.5
-6236.78
-7443.32
-7581.41
-2908.32
-7536.16
-14769.8
-7263.89
-15907.4
-13479.3
-24726.6
-13746.9
-26084.3
-5550.9
-12567.1
-5186.28
-13502.1
-7488.56
-5933.68
-10801.1
-4403.43
-7230.1
-1825.38
-9298.85
-1251.06
-7433.96
-8951.38
-11422.6
-5333.4
-6236.44
-10628.2
-10145.7
-6996.42
-780.815
-726.468
-525.54
-607.525
-2496.46
-1824.51
-2249.61
-2046.17
1074.82
604.612
-2638.34
-2936.48
-10633.5
-10111
-7626.27
-6611.99
-4008.17
-3392.87
-5658.92
-4680.12
-5280.1
-3862.68
-18202.7
-15995.1
-7891.22
-6767.63
-5941.37
-4570.33
-4877.43
-3174.98
-5163.65
-2280.69
-5576.92
-9163.82
-4887.81
-9251.4
-8197.2
-10274.3
-9174.13
-12517.1
-1000.44
-740.873
-788.029
-678.261
-3639.75
-2633.87
-2989.69
-1722.47
-1470.05
-1746.88
-8330.26
-8965.72
-4692.63
-4236.13
-9234
-9536.59
-14082.3
-16154.9
295.65
3795.2
-7347.53
-7105.12
-6939.49
-5473.99
-1092.34
-997.706
-1177.67
-976.326
-1818.92
-1287.05
-694.747
-607.689
-8164.15
-3905.63
-6931.23
-3277.84
-9203.4
-3703.9
-10875.1
-3896.15
-5454.29
-10270.8
-7012.47
-10750
-8607.66
-11555.9
-11243.2
-12523.3
-5341.34
-9370.18
-4859.85
-9327.79
-8155.16
-10841.8
-9339.36
-11223.9
-12972.5
-13158.6
-14229
-13684.2
-5690.43
-9213.11
-6247.62
-9436.44
-740.377
-2478.36
-8150.42
-5793.8
-722.651
-2563.55
-8067.62
-5546.41
-1018.23
-2455.38
-8137.55
-5970.98
-1186.61
-2356.09
-8023.07
-5907.74
-1099.5
-1215.24
-1041.56
-1141.2
-2176.47
-2244.66
-1543.73
-1697.6
-8484.29
-7861.52
-4128.53
-4212.63
-3830.5
-5253.18
-4169.89
-496.393
-2051.5
-1366.94
-1456.88
-3670.81
2500.96
-1123.57
-13662.8
-11749.5
-10784.7
-9544.69
-6219.05
-1227.65
-1118.07
-1297.14
-1643.96
-2238.65
-1770.41
-2189.88
-2922
-8242.76
-8187.25
-4667.63
-6095.62
-5063.09
-6719.16
-3235.25
-5166.19
-4969.65
-5424.1
-1349.01
-1704.81
-3271.96
-4846.96
-9651.67
-7957.16
-7721.02
-5699.87
-6877.55
-4946.02
-6272.7
-4652.25
-4855.84
-5396.4
-8475.11
-8400.75
-11375.8
-7395.11
-10421.9
-11220.9
-13037.8
-11002.5
-9733.9
-6153.41
-7214.9
-7241.82
-12356.3
-6094.92
-13147.1
-6131.78
-13904.1
-10856.1
-14650.7
-11060.7
-10561.5
-4830.82
-11198.7
-4880.75
-8264.68
-6672.61
-6942.9
-9573.51
-7089.48
-7603.37
-6776.24
-9764.95
-8525.84
-6262.31
-7055.05
-10315.8
-9532.26
-6231.42
-7943.37
-10047.4
-916.222
-785.886
-1192.24
-861.398
-1496.43
-1755.45
-1784.66
-1274.35
-8042.07
-7039.33
-4115.88
-1821.55
-7896.36
-7504.34
-6218.41
-5593.58
-5263.75
-4499.31
-1995.38
-2015.75
-4622.08
-2055.83
-8654.19
-7419.81
-4961.3
-3894.84
-3933.96
-2410.56
-3005.85
-1253.34
-4842.32
-132.078
-255.675
-118.793
-40.8777
25.9669
-240.777
-153.083
-60.5715
9.22254
-690.587
-309.14
-21.0105
191.932
-624.628
-366.565
-70.2481
113.438
-1128.39
-457.024
17.9666
440.54
-1112.81
-554.039
-198.891
10.0607
-761.538
-373.153
-184.27
-60.2827
-582.919
-244.422
-27.5808
126.607
-1684.93
-597.567
-133.503
169.708
-2015.82
-577.118
-86.1011
592.326
-1620.17
-575.43
-94.9777
300.737
-1831.67
-519.582
-113.718
543.626
-1572.15
-549.855
-42.5987
335.456
-2088.61
-594.464
-65.8401
686.455
-1423.7
-464.868
47.7429
480.755
-2068.01
-573.637
-35.1389
742.86
-237.447
-97.3195
-15.3364
81.5177
-204.836
-74.3235
-28.7161
78.8334
-612.288
-254.476
-27.7892
208.587
-514.585
-195.942
-77.3804
203.006
-1210.77
-424.316
-12.2053
457.459
-1101.27
-370.265
-86.2079
422.051
-1341.91
-503.628
-101.964
333.051
-1016.25
-351.5
-116.928
471.59
-1847.13
-519.225
-99.1182
745.339
-146.971
-55.5464
-17.3856
50.3237
-65.6116
-38.7897
-18.8263
-0.781534
-443.594
-160.676
-67.6171
121.838
-218.786
-116.177
-64.1804
-10.6337
-789.158
-267.438
-102.538
220.792
-450.789
-204.164
-101.34
-10.2535
-1202.3
-385.681
-131.792
332.62
-796.727
-301.75
-135.144
-4.9414
-1588.33
-463.854
-197.142
288.74
-1081.08
-365.781
-174.998
-26.7568
-2131.29
-602.377
-210.199
361.679
-1078.74
-340.443
-142.777
15.3673
-2051.11
-591.1
-240.916
302.631
-1190.51
-379.182
-168.347
-11.916
-2107.17
-551.557
-149.134
465.649
-969.107
-273.937
-88.6
70.1265
-2002.49
-472.423
-80.9056
526.924
-860.235
-194.762
-30.0036
116.479
-8.85274
-13.4246
-9.87236
-6.84981
-5.36034
-34.6417
-25.8761
-16.9934
-11.4414
-8.89387
-17.9431
-30.623
-22.5533
-15.5659
-12.1007
-74.8411
-57.2573
-37.6501
-25.2599
-19.5891
-12.453
-36.8802
-27.6622
-19.1107
-14.8215
-97.499
-75.2978
-49.2469
-32.8587
-25.4049
-47.2016
-37.7435
-24.8011
-16.5273
-12.7773
-7.65215
-16.376
-12.2815
-8.46047
-6.62738
-24.6123
-39.9572
-28.6812
-19.5672
-15.2348
4.09445
-13.5799
-10.7951
-7.53022
-5.90178
-59.9493
-54.6106
-36.3094
-24.3014
-18.7956
-3.13586
-15.5122
-11.5288
-7.94787
-6.22801
10.6101
-19.5002
-16.2094
-11.3864
-8.92896
8.24186
-10.9689
-9.08294
-6.35595
-4.98346
45.2133
-2.5857
-6.57012
-5.2339
-4.29691
30.5885
0.177806
-2.62873
-2.21754
-1.85604
-1.45381
-9.46505
-7.3373
-5.17145
-4.06761
-8.19985
-9.21005
-6.40959
-4.41629
-3.45623
-13.6466
-26.5335
-19.3209
-13.3782
-10.441
-27.9534
-26.0968
-17.541
-11.9539
-9.3249
6.13249
-28.8489
-22.5553
-15.8493
-12.4013
-45.5416
-37.9777
-24.982
-16.9418
-13.1381
-54.6458
-45.2584
-29.4113
-19.6665
-15.1704
-49.6034
-31.7297
-19.9325
-13.3459
-10.2647
-37.5806
-26.1632
-16.4693
-10.8958
-8.40517
-67.4113
-202.34
-129.629
-517.85
-88.1887
-717.63
182.248
-656.154
439.218
-131.524
-772.637
-1245.95
63.5687
-98.0463
-1140.87
-1772.77
-1414.23
-2006.45
-566.404
-133.474
-30.1409
-6.65075
-1.66343
-152.974
-82.7903
-11.5726
-3.16365
-1.40635
-1750.8
-409.13
-92.6211
-20.3269
-5.08983
-368.573
-111.577
-28.4543
-6.11553
-1.67351
-2954.13
-689.86
-156.499
-34.4552
-8.60878
-637.027
-197.731
-49.2761
-11.5812
-2.92827
-3988.69
-930.904
-211.835
-46.7656
-11.6981
-801.773
-258.298
-65.366
-15.3946
-3.86476
-5034.63
-1181.08
-270.152
-59.8958
-15.0404
-958.072
-324.495
-83.2626
-19.7157
-4.9856
-6063.7
-1460.59
-337.993
-75.4758
-19.0208
-1509.05
-458.676
-112.711
-25.771
-6.42461
-5612.38
-1347.21
-310.547
-69.0929
-17.3654
-1186.9
-388.386
-98.1392
-22.8811
-5.71607
-6280.99
-1515.73
-351.395
-78.5772
-19.8277
-1698.74
-501.809
-121.692
-27.4589
-6.82976
-6566.42
-1571.72
-364.915
-81.5588
-20.566
-1757.72
-521.628
-127.722
-26.7796
-7.05039
-544.506
-6692.61
-5934.77
-2200.22
-1555.22
-938.2
-3666.26
-2688.9
-6280.28
-5872.64
-2981.72
-2254.78
-422.735
-644.241
-1099.29
-1772.69
-2633.75
-3592.22
-304.023
-649.674
-1344.52
-2325.44
-3472.35
-4613.45
-322.293
-148.623
-550.908
-377.829
-1009.38
-840.722
-1673.42
-1558.91
-2385.04
-2302.55
-3089.28
-2804.25
-4398.41
-4907.14
-5270.68
-7735.7
-8576.53
-9397.92
-5533.81
-6017.76
-5925.2
-5352.62
-4539.82
-3940.32
-382.049
-323.823
-246.082
-153.701
-52.2564
-581.907
-492.902
-374.337
-233.701
-79.437
-992.288
-839.905
-637.457
-397.799
-135.19
-1598.64
-1351.79
-1025.1
-639.393
-217.256
-2371.66
-2002.44
-1516.8
-945.581
-321.268
-3226.66
-2717.84
-2055.53
-1280.97
-435.37
-274.65
-232.7
-176.769
-110.375
-37.5186
-586.557
-496.607
-376.991
-235.289
-79.9647
-1213.15
-1026.42
-778.764
-485.894
-165.119
-2096.22
-1771.84
-1343.31
-837.831
-284.696
-3125.41
-2637.9
-1997.92
-1245.71
-423.33
-4142.91
-3489.32
-2639.59
-1645.71
-559.571
-291.36
-247.008
-187.744
-117.283
-39.8815
-134.361
-113.91
-86.5797
-54.085
-18.3914
-497.761
-421.75
-320.383
-200.054
-68.0091
-341.417
-289.318
-219.803
-137.258
-46.6621
-911.465
-771.782
-585.933
-365.712
-124.297
-759.287
-643.031
-488.245
-304.756
-103.579
-1509.7
-1277.04
-968.64
-604.208
-205.296
-1406.47
-1189.74
-902.355
-562.786
-191.199
-2148.49
-1814.48
-1374.42
-856.618
-290.965
-2074.02
-1751.19
-1325.93
-825.975
-280.453
-2775.07
-2336.9
-1766.25
-1099.69
-373.476
-2518.26
-2119.13
-1599.74
-994.61
-337.435
-3933.76
-3301.08
-2492.16
-1554.04
-529.17
-4354.11
-3631.62
-2737.01
-1712.68
-586.932
-4606.47
-3803.26
-2864.88
-1812.43
-633.229
-6558.8
-5328.35
-4037.38
-2637.54
-978.55
-6880.65
-5453.44
-4188.32
-2901.39
-1219.35
-7220.63
-5625.72
-4366.04
-3156.33
-1442.32
-4951.83
-4158.21
-3141.6
-1960.18
-667.604
-5355.32
-4478.14
-3379.68
-2113.98
-722.968
-5226.11
-4343.43
-3276.72
-2062.05
-712.094
-4646.54
-3825.14
-2890.33
-1845.22
-652.848
-3815.99
-3088.28
-2347.23
-1547.68
-581.577
-3194.64
-2538.39
-1943
-1328.01
-532.36
-445.127
-712.521
-1216.6
-1943.51
-2865.42
-3871.92
-335.681
-745.982
-1507.67
-2553.85
-3751.45
-4904.73
-343.949
-167.42
-617.185
-436.347
-1124.5
-945.593
-1844.86
-1720
-2631.22
-2577.53
-3404.03
-3216.63
-4686.58
-5172.44
-5512.64
-7880.07
-8639.06
-9417.16
-5778.88
-6161.11
-5946.32
-5275.16
-4433.54
-3892.15
-402.399
-341.19
-259.376
-162.054
-55.1055
-644.009
-545.952
-414.984
-259.261
-88.1603
-1099.15
-931.37
-707.688
-442.039
-150.303
-1754.69
-1485.83
-1128.41
-704.664
-239.591
-2584.21
-2185.96
-1658.99
-1035.82
-352.227
-3485.23
-2943.14
-2231.71
-1393.63
-474.19
-303.418
-257.242
-195.546
-122.169
-41.5415
-674.123
-571.383
-434.263
-271.292
-92.2494
-1361.75
-1153.59
-876.393
-547.384
-186.123
-2304.86
-1951.03
-1481.39
-925.069
-314.548
-3381.48
-2859.03
-2169.28
-1354.47
-460.648
-4412.13
-3723.84
-2822.98
-1762.99
-599.986
-311.019
-263.77
-200.561
-125.329
-42.6247
-151.417
-128.438
-97.6778
-61.0467
-20.7643
-557.996
-473.159
-359.735
-224.78
-76.4443
-394.564
-334.64
-254.466
-159.021
-54.0835
-1016.27
-861.427
-654.711
-409.008
-139.082
-854.737
-724.647
-550.843
-344.152
-117.031
-1666.3
-1411.54
-1072.28
-669.684
-227.699
-1553.82
-1316.5
-1000.2
-624.683
-212.395
-2374.31
-2009.43
-1525.43
-952.428
-323.828
-2326.49
-1969.38
-1495.14
-933.442
-317.334
-3066.12
-2590.57
-1964.67
-1226.55
-417.177
-2898.9
-2450.18
-1858.12
-1159.54
-394.193
-4203.81
-3540.07
-2681.98
-1676.97
-571.857
-4608.9
-3863.1
-2925.58
-1837.38
-630.836
-4848.28
-4031.48
-3057.41
-1943.61
-680.522
-6729.04
-5509.76
-4206.69
-2763.67
-1028.21
-6978.93
-5570.22
-4307.12
-2998.83
-1263.37
-7257.26
-5670.85
-4413.52
-3197.05
-1461.75
-5181.57
-4361.65
-3303.33
-2065.01
-704.027
-5494.97
-4607.01
-3486.27
-2185.32
-748.249
-5256.3
-4380.27
-3314.06
-2090.77
-723.158
-4587.82
-3786.22
-2869.96
-1838.34
-652.253
-3729.48
-3023.05
-2304.86
-1526.61
-576.595
-3155.03
-2507.82
-1922.56
-1317.56
-529.852
-19623.1
-14342.5
-5292.25
-4315.83
-3278.87
-4627.4
-4207.98
-12937
-14614.6
-11583.9
-13369.6
-8032.12
-11377.2
-6169.4
-6430.68
-4717.94
-20376
-11362.1
-4440.24
-7267.01
-9392.92
-6502.5
-7258.57
-5505.67
-3400
-4952.9
-5432.88
-5585.31
-19262.1
-12985
-12833.7
-9237.93
-9285.16
-9765.28
-4746.48
-6040.84
-7387.34
-14256.6
-12641.2
-10966.8
-10549.7
-9454.03
-9448.14
-6588.37
-5264.42
-4186.18
-2223.4
-4713.14
-3949.35
-2991.74
-1880.72
-646.646
-3876.11
-3267.21
-2475.8
-1547.17
-527.157
-2941.75
-2475.87
-1872.59
-1167.95
-397.359
-4163.46
-3513.56
-2662.03
-1660.97
-564.829
-3769.63
-3169.82
-2398.37
-1498.35
-510.754
-9640.87
-8195.21
-6945.95
-6484.27
-6661.72
-11052.7
-9709.97
-8019.23
-6543.72
-3966.64
-8409.92
-5966.1
-4577.89
-3267.47
-1454.76
-10067
-8446.28
-6731.13
-5024.93
-2466.14
-6826.89
-5511.97
-4100.6
-2583.28
-905.964
-8976.43
-6734.31
-4971.78
-3194.78
-1182.46
-5367.78
-4405.2
-3292.6
-2061.04
-710.913
-5574.24
-4561.5
-3404.87
-2132.28
-736.651
-4138.84
-3416.6
-2557.37
-1595.73
-546.784
-14566
-11897.6
-10174.4
-9320.55
-8860.92
-8908.5
-6898.48
-5333.28
-3741.9
-1682.64
-3855.82
-3166.24
-2376.56
-1500.39
-524.99
-6335.62
-5232.48
-3957.74
-2524.2
-895.739
-7973.12
-6509.25
-4974.19
-3290.94
-1261.42
-5651.22
-4665.6
-3544.02
-2280.87
-818.573
-6381.91
-5308.15
-4030.51
-2568.76
-903.979
-4870.56
-4060.14
-3070.85
-1936.07
-669.912
-3014.18
-2510.23
-1887.63
-1177.58
-402.233
-4423.24
-3708.72
-2800.96
-1749.27
-596.799
-4777.71
-3956.49
-2972.81
-1863.25
-641.98
-4938.84
-4112.32
-3103.72
-1951.13
-673.342
-13803.4
-11839.2
-10303.3
-9615.44
-8799.95
-9243.56
-6795.48
-5404.34
-4144.03
-2166.53
-10013.9
-8294.36
-6633.61
-5075.88
-2513.12
-7464.08
-5846.26
-4543.82
-3179.16
-1317.54
-7912.54
-6487.3
-4975.01
-3302.79
-1260.89
-7886.46
-6162.13
-4783.67
-3338.79
-1370.35
-4170.06
-3463.6
-2624.89
-1669.21
-586.108
-5386
-4512.97
-3412.47
-2137.54
-731.63
-6476.29
-5370.11
-4068.72
-2590.29
-910.489
-503.211
-1424.24
-2248.69
-3016.73
-3741.3
-4415.83
-2558.15
-6880.42
-6561.72
-2513.4
-8764.95
-7349.71
-8802.51
-9764.19
-2313.99
-1495.1
-5374.25
-3125.89
-10265.1
-7252.94
202.112
-2079.53
-5746.98
-5408.28
-2029.85
-7476.23
-6015.78
-7405.8
-8358.86
-1917.16
-888.685
-4616.14
-1650.34
-8541.27
-4351.25
1464.83
-1525.88
-4390.6
-4124.67
-1496.19
-5934.67
-3654.03
-6041.54
-6715.65
-1450.98
-808.514
-3283.13
-1712
-6855.29
-1779.87
1599.59
-1131.19
-3418.77
-3282.79
-1151.12
-4572.68
-2259.72
-5052.18
-5962.91
-1097.56
-847.987
-2414.31
-1726.56
-6063.86
-404.861
1202
-919.778
-2915.06
-2845.77
-977.059
-3700.19
-1887.3
-4554.7
-5804.52
-873.865
-921.105
-1749.53
-1656.42
-5309.38
-189.126
115.766
-816.043
-2614.24
-2623.65
-888.916
-3439.36
-2137.22
-4233.96
-5558.46
-679.368
-723.101
-1457.93
-1625.09
-5224
-954.519
-462.681
-1384.41
-3395.02
-4886.88
-1886.95
-5503.5
-9592.08
-7182.95
-10367.4
-1026.8
-743.57
-3914.82
-2467.07
-1273.34
-9293.7
-4870.37
-1293.94
-3180.34
-4315.43
-1647.73
-5113.23
-8713.93
-6516.61
-8877.31
-1056.7
-667.27
-4078.62
-2356.1
-451.975
-9161.45
-3715.41
-1148.67
-2832.64
-3570.55
-1337.14
-4695.57
-7869.59
-5596.88
-7886.2
-950.548
-769.408
-3535.56
-2480.1
-651.332
-7488.69
-3592.87
-1006.1
-2580.88
-3000.07
-1100.36
-4424
-7229.42
-5034.78
-7231.96
-885.043
-790.495
-3316.37
-2618.6
-426.767
-7018.36
-3679.83
-918.434
-2340.7
-2689.36
-972.552
-4051.99
-6699.22
-4631.47
-6919.19
-837.505
-852.457
-3047.41
-2850.5
-548.358
-6798.39
-3795.86
-858.047
-2100.62
-2507.99
-900.668
-3757.6
-6636.32
-4325.08
-6714.4
-871.366
-979.865
-2728.16
-2714.06
-791.584
-6980.24
-4210.5
5845.04
7379.26
15330.6
22383.3
22785.3
39272.6
17539.9
44649.5
14300.3
31387.2
21397.4
32468.7
19191.2
25191.8
7246.14
8209.01
14307.5
16372.9
18513
18369.6
14620.4
18098.3
21541.4
19364.4
4802.51
3622.34
5897.41
3962.3
12059.4
9567.59
20672.5
14907.7
15984.3
16616.9
17713
16812.4
6139.14
4828.82
37976.1
50852.9
24528.4
30123.8
51175.4
66395.1
26492
30324.3
28101.9
39716.4
24498.2
32502.7
14298.3
23092.2
2565.31
877.1
2636.55
959.229
8186.6
3294.98
11303.9
4147.69
7998.64
3073.38
8562.51
2740.25
14644.6
4652.94
18912.1
6371.45
23338.9
11552
21361.1
12674.3
21983.5
14219.3
19324.8
14584.7
16719.5
9925.48
16699.3
8472.95
22032.1
14135.8
22078.3
14278.9
20398.3
15461.3
20643.7
15544.8
18069
11494.9
18720.3
11788.3
17036.7
7343.98
7839.86
9499.64
17110.5
8014.63
6808.74
9580.62
18055
7324.98
8911.72
9599.46
18957.6
7509.84
9707.49
10047.1
3311.66
3571.43
1130.72
2138.2
10303.2
10890.3
3945.04
6927.61
13245.2
14759.6
6297.4
10672.9
12221
1210.41
13319.4
16266.3
8744.36
876.061
7511.18
11886
19072.6
12970.3
9619.8
11600.5
10044.6
8579.5
13414.3
3118.19
2564.14
1755.83
1768.25
9675.11
8233.96
5801.44
5514.49
12090
10362.9
7516.75
6765.9
5886.37
7457.01
12086
12485.9
13775.4
12553.7
15507.1
13571.1
10309.5
8670.54
8953.41
9539.81
11776.2
9471.64
10675.2
7937.2
9182.69
6468.95
10574.2
6990.25
10131.1
4944.89
8662.29
9491.58
12443.6
16354
13678.1
19981
6860.05
7720.74
8948.3
3109.78
7706.17
14925.6
7302.91
15964.9
13535.1
24638.5
13767.7
26105.5
5784.25
12757.9
5241.06
13560
7955.91
6120.42
10997.8
4445.24
8257.25
1897.56
9627.6
985.206
7620.38
9075.63
11511.7
5364.16
6285.24
10668.1
10169.6
7011.69
2036.1
1825.8
1685.94
1498.2
1396.99
1277.78
6827.28
5694.9
4996.26
4351.96
3566.09
3134.81
8437.91
7394.72
6882.84
5225.84
4358.83
4159.86
6641.1
5983.68
5876.37
10976.2
8538.45
7274.36
10218.3
7737.13
6372.28
10751.6
8661.82
7611.62
6512.38
4400.46
3487.2
15802.3
13916
12212.2
10047.7
8530.49
7218.45
8800.63
7004.13
5721.72
7289.74
5399.09
4259.75
7335.23
4167.41
2424.4
10184.9
13859
8019
10426.7
10884.9
16047.6
9693.3
14179.3
102.112
657.268
-399.9
70.5787
2974.34
3458.88
1237.36
756.216
699.986
2425.01
9313.14
13637.8
6620.69
3584.12
9712.41
9637.89
14871.2
16371.8
-574.378
-4004.96
7481.68
7060.36
7008.97
5411.9
910.515
511.207
556.676
221.917
2101.38
290.159
-250.671
-801.659
9203.7
2484.38
6184.72
1672.67
8868.91
2736.2
10728.1
3497.74
8736.69
11857.8
8090.9
11586
13879.6
14763.6
13258.8
14007.4
5693.17
9531.79
6555.59
9454.3
8580.59
11178.2
9462.07
11310.7
13812.7
13774.8
14466.6
13849.7
5744.84
9244.25
6246.92
9433.16
90.2095
1602.71
7693.31
5100.4
-480.98
1184.95
7129.41
4527.76
529.683
1836.69
7878.78
5543.75
984.017
2106.12
7943.98
5759.61
-615.533
-713.476
180.976
46.9089
-2782.97
-2836.74
-124.914
-254.319
-434.401
-1844.66
1884.82
1269.2
-10202.1
-9425.9
-5497.73
-4118.95
-253.556
-10367
-10785.1
-4286.73
-6289.54
-614.636
10080
8029.51
7310.69
7026.72
4538.19
-767.04
-732.452
-16.944
103.667
-2496.56
-2552.93
68.2047
360.767
-2524.51
-3206.97
933.109
1351
-5126.67
-2402.64
-8221.81
-5254.16
-3626.47
-2812.11
-4047.92
-3600.86
759.749
1828.55
3729.8
2363.13
1061.72
-1037.86
1143.95
-697.575
2011.13
630.712
2593.5
3005.62
5314.13
4901.29
10050.5
6119.37
8084.94
8208.06
12274
9990.79
8133.97
4909.49
4149.25
4166.41
11827.5
5298.18
13007.8
5935.97
13684.7
10198
14604.5
10917.4
9817.59
4047.29
10986.9
4670.18
6734.36
5534.75
5573.11
8283.25
4468.77
5107.09
4808.56
7685.2
7720.37
5515.56
6272.19
9489.17
9278.97
5994.95
7688.9
9809.04
-790.266
-851.703
-968.276
-20.5786
-312.035
-351.78
-3003.49
-3296.49
-3334.43
-126.242
-891.825
-917.391
-3803.81
-4377.66
-4546.44
795.369
-866.962
-1213.21
-1345.5
-1171.44
-873.136
-3996.28
-4152.35
-3909.09
-3270.84
-3795.44
-3771.37
-4043.56
-4485.73
-4430.26
1674.81
-358.395
-532.162
3416.1
1914
973.581
-1113.44
-2370.55
-3042.58
-1018.72
-2665.12
-3386.69
-372.35
-2190.76
-2721.54
2771.32
-535.231
-939.53
-16.051
-36.5192
-53.566
-82.4182
-256.489
-151.457
-129.913
-130.548
15.5099
-79.6002
-200.392
-325.653
-437.487
-299.413
-342.685
-386.186
276.609
-26.0799
-282.664
-572.417
-141.109
-244.85
-334.582
-394.868
-26.2275
-149.194
-168.377
-170.647
236.186
6.92746
-134.006
-235.84
1052.46
217.842
-123.92
-366.081
1644.41
384.019
-24.6665
-617.205
752.127
96.8698
-207.33
-522.08
1360.62
294.123
-6.09896
-543.374
1111.45
257.964
-146.349
-451.63
1837.47
455.228
-23.0317
-723.752
1234.2