/*--------------------------------*- C++ -*----------------------------------*\
  =========                 |
  \\      /  F ield         | OpenFOAM: The Open Source CFD Toolbox
   \\    /   O peration     | Website:  https://openfoam.org
    \\  /    A nd           | Version:  11
     \\/     M anipulation  |
\*---------------------------------------------------------------------------*/
FoamFile
{
    format      ascii;
    class       volScalarField;
    location    "2.8";
    object      gradTz;
}
// * * * * * * * * * * * * * * * * * * * * * * * * * * * * * * * * * * * * * //

dimensions      [0 -1 0 1 0 0 0];

internalField   nonuniform List<scalar> 
5712
(
7020.28
23080.2
5564.66
23674.5
4185.78
24518.6
6627.62
37892.9
8151.4
52122.6
8079.62
37907.4
7782.36
31426.9
8087.08
28058.8
4891.48
3004.13
13076.7
7730
4803.49
2585.88
14360
7125.25
5324.04
3826.65
17088.6
11943.6
4023.66
2863.78
16814.1
12140.3
9430.79
3980.83
8120.33
3603.97
3711.59
8763.64
32844.9
8916.73
11740.9
3990.65
42409.4
11537.2
11039.1
3843.19
23389.6
7268.13
11989.7
4192.74
20276.7
6457.59
5486.65
2720.13
8304.62
3217.01
5931.53
3211.83
8110.23
3090.84
7591.09
4313.61
6986.75
3013.73
10434.6
3733.39
3595.99
1250.13
11782.6
8110.1
7320.79
5324.64
13364.3
10981.7
7309.37
6328.54
6867.3
4587.03
9590.05
6336.67
4844.52
3547.02
2484.54
2030.74
4728.57
4086.56
2475.48
2382.21
4607.53
2990.5
2379.53
1511.77
6087.6
3294.23
4516.2
5501.32
8259.49
5868.26
6484.95
9361.64
4054.5
1910.41
2675.48
3164.69
2026.68
835.513
1160.1
1173.96
7095.07
12755.2
4837.06
14272.3
8364.41
12514.2
5970.86
14994
9565.35
11375
7738.69
14717.8
11695.1
14212.3
8565.8
8193.26
9021.06
14173.8
12826.9
12358
12547.4
18230
11510.5
8652.78
7337.04
8189.01
12995.6
14702.2
13060
17086.4
16324.4
13461.1
12418.7
16910.3
16013
11666.5
11319.2
15908.8
15468.5
10306.7
8028.29
9337.67
8034.12
10062.8
8842.46
10693.4
10127.9
14736.3
14929.2
9648.4
8266.24
9000.76
8459.68
9139.42
9477.62
10219.6
11269.4
13366.6
15224.8
7903.66
6191.82
5456.73
6986.54
10871.4
13325.9
7564.58
12020.6
4555.09
6041.93
6747.31
5538.46
1287.42
4647.74
686.539
1675.09
3873.44
8108.76
1444.47
2820.1
558.126
3894.04
331.917
1364.39
4442.04
4520.48
5044.55
3087.65
7003.01
5559.11
8237.94
5610.16
982.074
2471.07
2492.08
1385.83
1405.08
1837.57
2004.59
1508.4
10328.8
6241.28
1948.25
11721.6
6685.73
2181.46
9900.19
6175.18
2069.64
11560.5
6698.67
2179.54
9113.28
5663.91
1853.03
11310.8
6746.85
2248.1
5160.13
2730.42
717.5
6448.18
4220.84
1469.98
7583.71
5227.28
1800.42
8699.01
5596.18
1851.21
11225.8
6951.55
2431.94
6178.37
3407.43
1058.86
5983.78
4283.53
1608.24
7009.49
5173.97
1889.06
8781.42
6141.19
2184.44
11340.3
7016.22
2477.16
293.468
1990.54
2795.65
4061.85
2117.83
2450.14
5333.91
5083.12
598.055
1041.28
638.757
1085.12
484.039
1415.39
867.118
1858.93
3207.11
1574.42
4070.66
2354.66
2179.89
3792.15
3373.99
972.386
5943.48
1485.2
-1818.56
780.314
1821.68
1378.88
1272.73
1207.12
9936.78
4704.03
2722.91
1738.57
10096.3
4898.01
3409.32
2188.12
9981.4
5283.1
4960.7
3571.48
3533.55
2596.82
1797.11
1739.2
12535.2
11168.9
5914.96
6155.94
13294.6
12497.5
6562.53
6635.14
5352.88
5531.43
10928.3
9185.49
3551.7
3718.02
2022.3
2278.34
4061.85
4042.04
2264.84
2415.56
3160.37
3404.02
1812.51
2191.45
4860.15
3524.47
4892.47
3623.59
7549.88
4678.73
7263.84
5017.53
2956.17
2547.52
3102.99
2348.53
1692.77
1613.58
1977.56
1376.48
11936.7
8677.04
6252.06
6594.31
11891.2
8840.46
6296.17
6563.35
12304.1
9085.12
6387.54
6360.33
13759.1
14620.8
12747.3
8734.89
5227.21
13863.6
13097.5
12449.6
10562.3
7238.84
12996.4
11946.5
9743.98
7718.79
5107.38
7701.82
7103.54
7393.21
8726.14
7844.14
6900.56
7422.28
8563.54
8022.69
6698.43
7426.8
8362.45
10474.1
7382.27
10016.2
7036.37
8138.93
6701.37
7871.43
6928.61
6851.85
8218.81
8690.47
7542.83
7877.93
6943.87
6940.55
6409.88
6388.06
6518.69
5441.54
7838.32
7038.74
4783.04
4681.17
2788.35
9003.3
6943.51
6275.14
5024.73
3936.73
2411.98
5718.82
4311.41
4744.36
2247.25
1753.36
1012.84
4943.81
3565.19
1744.16
1442.15
4187.52
1913.78
1660.3
887.545
3439.97
3283.73
3204.63
4807.7
4796.95
4697.51
4118.62
6209.96
3410.87
2312.29
2275.17
3221.02
1066.07
542.164
305.579
649.858
4982.32
2074.27
609.016
5848.17
1500.61
397.374
4983.84
2219
678.895
5800.32
1551.92
430.296
4551.32
2150.68
553.724
5642.87
1564.78
364.478
4516.87
2245.49
476.747
4276.95
2040.44
466.816
4400.71
2102.16
562.948
4560.36
2133.03
443.863
5576.97
1520.71
226.152
5786.68
2867.3
743.408
5427.39
2688.14
725.593
5141.31
2537.73
734.791
5095.64
2161.01
523.848
6018.65
1405.12
339.744
1879.89
682.646
133.101
-224.58
780.085
299.914
80.7094
-45.8796
1994.74
750.489
191.813
-139.537
989.507
417.935
198.453
92.9098
2148.91
838.305
290.498
-10.835
1698.48
809.642
329.682
82.6432
1295.36
751.751
298.501
7.65983
1228.51
830.52
510.356
316.225
1788.17
806.454
260.406
-187.08
1543.63
684.623
305.326
-194.249
2119.45
830.354
267.613
-144.519
1927
756.951
301.461
-324.739
1437.44
756.297
319.186
-52.8916
1188.09
610.071
334.101
8.51341
1068.41
673.948
417.09
266.264
821.266
520.947
358.438
219.716
2414.07
825.31
127.949
-445.513
2423.25
764.675
173.673
-613.557
2413.03
838.595
151.619
-422.817
2348.28
744.656
182.926
-593.746
2369.68
843.951
231.068
-303.617
2190.42
705.858
227.968
-487.932
2075.46
780.843
322.655
-47.644
2401.57
791.858
325.594
-571.507
1867.54
702.024
327.178
-133.156
1946.34
541.875
157.149
-419.16
781
197.467
45.2011
-88.5091
2001.69
577.592
178.522
-398.914
810.163
213.15
58.6075
-72.891
2024.62
617.627
224.435
-350.289
818.588
230.748
76.9632
-53.1574
1821.3
583.164
259.407
-277.103
790.535
238.237
105.501
-18.372
1663.65
581.033
288.752
-161.543
701.784
250.944
145.067
29.7979
1166.85
474.97
236.666
-43.2135
657.678
331.012
207.811
114.341
1347.3
479.458
230.511
-113.458
662.966
285.684
176.381
72.3146
940.321
463.168
266.137
48.2628
592.967
352.339
233.667
155.214
664.899
424.214
299.131
193.04
498.291
354.741
258.401
201.171
-19.487
9.76863
9.93725
7.21028
5.66915
-2.62419
6.46586
5.59641
3.98883
3.13816
12.1652
27.1011
20.1295
13.7833
10.6782
31.7366
26.2018
17.384
11.595
8.92281
47.2976
48.3218
33.071
22.3256
17.2553
129.632
88.6438
56.3145
37.2315
28.5848
156.634
104.965
66.5836
44.1019
33.9505
226.909
139.14
85.867
56.409
43.3708
83.6952
70.6845
46.7495
31.2697
24.022
88.7729
66.529
43.0735
28.7432
22.0906
57.5344
56.4851
38.0717
25.6907
19.8289
103.572
68.5853
43.0198
28.5274
21.8667
108.977
84.5593
55.2644
36.9005
28.4185
118.433
79.6857
50.5343
33.534
25.7824
180.497
112.13
69.3453
45.5796
35.0251
150.718
92.5587
57.148
37.5532
28.8086
-36.7369
5.25491
7.39398
5.53936
4.3892
-20.1603
1.72208
2.90597
2.22078
1.7833
-16.0096
16.1158
13.7019
9.60819
7.51972
-12.7568
5.57264
5.10735
3.6196
2.86346
10.0711
28.7119
20.8507
14.2691
11.1407
15.0587
18.3416
12.228
8.12131
6.32006
67.7813
55.4707
36.0974
24.2413
18.8092
44.9202
34.9711
22.2884
14.861
11.5378
124.009
72.504
44.1605
29.0087
22.247
1512.03
3461.79
1514.41
3418.79
1639.8
3382.66
1956.93
3521.48
2052.59
3646.71
808.132
1284.05
1345.86
2178.08
420.508
619.214
143.004
200.411
7938.19
1891.58
432.361
96.2934
23.8421
2158.23
580.278
154.065
34.9448
7.5667
7865.98
1858.62
424.325
93.6939
23.3668
2195.23
647.18
159.19
36.9196
9.14047
7549.32
1770.57
402.546
88.743
22.1522
2130.73
626.281
153.664
35.4626
8.81122
6961.98
1617.52
366.477
80.6938
20.1427
2074.94
597.239
144.619
33.0755
8.17231
5876.93
1357.85
307.698
67.8238
16.9471
1969.73
551.446
132.029
29.999
7.38805
2819.19
680.996
156.893
34.8179
8.70911
962.061
273.664
64.9529
14.4925
3.55852
4175.8
994.49
227.388
50.2264
12.5465
1416.56
397.786
95.2696
21.6315
5.36234
1660.61
404.405
93.5932
20.8683
5.2285
536.144
158.795
37.4172
8.3388
2.06598
572.997
138.673
32.1511
7.18917
1.80114
213.422
56.9397
12.3184
3.48339
0.661025
157.184
515.523
4460.41
-805.793
738.788
791.775
2307.84
2953.78
1851.26
3480.55
2913.5
4497.17
3507.8
4354.73
1824.32
2458.99
1951.96
2315.02
1015.82
1056.17
2283.86
1681.2
501.98
-478.04
-777.253
-933.306
-293.411
12738.7
2994.29
4149.6
2658.63
-199.475
-67.5643
2928.66
-1445.06
-817.733
-1114.15
-568.818
6996.78
3674.82
1234.91
1030.72
3642.74
2000.63
633.519
1375.61
-1515.72
-886.441
685.901
539.793
8617.77
4289.58
5272.72
2833.83
4077.89
4400.15
1526.73
-916.552
907.209
1631.95
1355.09
1187.77
1094.01
866.153
1338.53
1086.81
860.222
615.021
268.928
442.948
370.969
284.948
183.512
64.4395
-426.83
-355.997
-265.528
-163.086
-54.9093
-694.635
-580.303
-433.904
-267.165
-90.0473
-835.32
-699.145
-523.86
-323.155
-109.039
-255.248
-204.161
-143.465
-82.3411
-26.2771
9337.8
8235.27
7184.25
6767.79
6466.38
2720.25
2449.29
2341.71
2000.35
1079.6
3197.56
2581.31
2217.95
1778.88
951.888
2071.23
1707.08
1519.83
1197.92
511.272
-29.8485
26.0427
147.48
166.262
84.3437
37.6691
128.397
178.874
163.204
70.8131
2505.77
2119.01
1695.02
1200.16
500.557
-880.921
-432.59
-171.35
-31.4139
6.90546
-651.936
-465.024
-282.353
-135.237
-35.271
-789.73
-493.361
-257.182
-102.3
-21.7815
-514.521
-427.342
-312.12
-185.725
-60.4385
5244.99
4822.56
4251.11
4028.22
3878.62
2842.15
2265.98
1912.83
1483.67
740.992
1156.39
1061.87
916.026
668.299
267.909
915.095
792.522
646.939
450.803
173.613
3050.34
2477.6
1906.98
1283.19
500.456
1782.01
1524.39
1210.04
811.809
296.572
555.234
469.458
370.664
248.742
91.7746
1218.45
1025.99
792.836
513.999
182.014
-1315.69
-1062.62
-768.181
-460.003
-152.271
-779.629
-635.972
-460.879
-274.47
-90.156
619.643
541.997
442.729
305.263
114.346
490.259
431.365
353.792
243.604
90.3513
5605.7
4145.78
3637.93
3436.29
3101.32
3291.54
2580.46
2018.43
1462.48
670.678
3906.65
3235.61
2658.25
2107.55
1050.46
2274.82
1869.9
1473.41
1049.08
464.774
3485.41
2868.41
2209.29
1464.82
547.221
3345.42
2493.06
2054.63
1573.05
680.033
1339.61
1121.08
866.329
565.388
202.424
-813.248
-671.304
-493.494
-298.168
-99.0093
806.575
697.756
568.061
393.386
148.453
-26788.8
-43932.3
-22203.7
-35571.4
-23842.8
-50060.3
-28543.9
-63554.3
-16955
-11580.9
-19109.3
-11877.4
-15664.2
-10057.3
-19419.7
-10194.9
-22113.7
-16623.2
-32258
-23195.3
-18990.2
-15098.9
-26973.1
-20228.5
-15242.7
-15548.3
-12504.1
-11994.8
-14691.7
-13866.1
-37340.5
-10298.9
-14184.9
-5287.7
-45723.7
-12663.2
-12688.3
-4698
-27735.9
-8735.6
-14522
-5556.54
-24631.2
-7662.56
-11378.8
-4571.86
-14526
-5258.17
-10794.9
-4740.41
-12629.8
-4565.43
-11196.2
-5419.94
-10090.1
-3998.44
-12963.4
-4571.31
-4551.4
-1596.59
-9682.8
-6404.43
-8357.31
-5078.15
-8571.21
-6882.89
-7349
-5238.49
-8484.66
-4804.54
-9922.71
-6152.92
-5723.87
-3404.43
-3082.06
-1887.62
-4942.44
-3404.28
-2563.44
-1820.71
-5810.86
-3145.02
-3216.07
-1607.36
-7468.21
-3786.39
-4808.58
-5609.88
-9465.4
-6351.39
-6761.22
-9458.65
-5070.32
-2271.23
-2881.74
-3244.29
-2746.12
-1104.48
-1306.15
-1234.36
-11154.1
-13540.9
-6276.39
-15296.4
-11599.6
-12924.5
-7207.95
-15643.9
-11729.9
-11780.8
-8592.3
-14897.4
-8054.45
-6518.75
-8786.56
-9728.86
-9697.95
-8946.79
-10281.8
-11883.3
-12737.5
-18080.8
-6126.71
-6279.57
-6810.96
-8237.31
-12908
-12840.3
-8953.14
-16275.8
-12508.9
-11904.2
-8815.37
-16036.6
-12457.3
-10542.2
-8232.02
-14968.2
-12329.6
-7351.25
-5857.85
-7522.11
-6001.29
-8369.24
-6737.64
-9107.86
-7697.73
-13645.5
-12393
-6912.85
-5952
-6884.6
-5922.3
-7532.22
-6976.91
-9030.57
-8894.43
-12620.4
-12934.7
-6314.27
-5041.88
-4648.32
-6126.95
-7968.5
-11081.8
-6027.1
-10231.9
-4241.87
-5633.73
-6057.7
-4952.38
-781.871
-4036.75
-223.888
-1188.86
-2886.34
-7038.76
-625.962
-1957.38
-364.47
-3594.48
-128.838
-1114.21
-4354.32
-4346.48
-5013.73
-3004.93
-6740.84
-5234.45
-8110.86
-5318.66
-934.256
-2347.5
-2465.05
-1330.15
-1338.92
-1724.91
-1966.95
-1448.46
-5426.95
-1867.02
-7336.12
-2504.35
-5548.03
-1947.85
-7510.19
-2697.74
-5504.22
-1917.93
-7959.06
-3074.68
-3437.78
-959.372
-4247.02
-1635.51
-4764.31
-1854.26
-5712.66
-2168.1
-8398.54
-3351.77
-4391.98
-1322.2
-3866.03
-1932.42
-4638.77
-2232.24
-6269.88
-2758.68
-8691.04
-3290.09
-5954.42
-5601.07
-4433.63
-4387.32
-9928.13
-7603.64
-8031.24
-6672.03
-4088.4
-3611.75
-1663.83
-1219.18
-3847.25
-3776.12
-1521.72
-1607.8
-2850.76
-4550.29
-3422.76
-4915.89
-3748.67
-2390.07
-3080.53
-428.317
-6531.16
-1667.36
2601.72
508.58
-855.747
-207.791
306.147
757.756
-2525.19
-1856.89
-931.278
-585.968
-2666.83
-1964.32
-1363.65
-663.499
-2966.1
-2346.91
-1784.01
-896.603
-1096.91
-30.6514
723.269
1149.28
-4992.24
-5397.41
-3823.61
-3608.42
-6657.43
-6689.52
-5504.38
-4639.01
-2539.59
-2879.21
-3851.71
-4463.1
-2285.64
-2002.33
-930.82
-863.18
-3514.27
-2765.6
-1760.77
-1384.61
-1290.09
-1477.99
-186.704
-546.472
-1729.32
-1293.46
-2531.05
-1933.61
-2756.92
-2367.93
-3928.21
-3174.84
-601.566
-386.747
-1218.55
-767.132
419.841
548.828
-290.977
153.597
-3734.89
-4775.76
-3281.75
-4939.81
-3689.03
-4742.16
-3359.65
-4932.88
-3860.61
-4362.34
-3539.88
-4685.53
-2788.55
-4595.1
-2455.33
-2259.46
-2576.18
-6941.51
-4987.99
-4708.91
-5037.16
-5408.56
-5561.07
-4737.67
-4106.99
-3946.07
-3274.19
-5747.34
-5841.13
-7692.91
-11887.3
-5416.64
-5238.94
-7377.99
-11319.5
-4936.17
-4776.52
-6807.85
-10419.8
-6801.33
-5233.82
-6216.54
-4754.95
-5548.44
-4458.03
-5816.33
-5419.59
-6293.73
-9640.85
-5515.5
-5221.2
-4756.31
-4804.98
-4391.45
-4686.41
-4674.83
-5632.37
-4497.39
-8518.47
-3894.1
-2801.27
-2652.44
-963.977
-5510.55
-4847.61
-4264.31
-3133.62
-2110.11
-804.189
-3253.07
-2651.91
-3191.18
-969.502
-426.632
127.751
-3548.6
-2315.21
-611.038
-346.634
-2670.01
-748.319
-280.934
182.612
-2022.16
-2168.01
-2297.21
-4335.58
-3145.96
-3637.93
-3295.67
-6059.11
-2087.1
-1394.62
-1246.8
-2618.87
232.675
372.669
794.47
77.1954
-4190.19
-1219.13
-8013.99
-832.289
-3906
-1307.91
-7784.59
-862.926
-2973.54
-788.959
-7081.49
-690.428
-2875.49
-637.01
-2699.75
-624.086
-3006.49
-916.121
-3240.47
-611.975
-6664.32
-874.502
-4030.97
-780.601
-3790.22
-610.797
-3945.57
-785.227
-4491.68
-681.357
-6996.11
-849.657
-818.43
-163.219
194.962
479.57
-274.201
-39.6699
77.1242
152.591
-806.021
-125.585
215.287
453.861
-185.533
40.1759
86.2447
95.9968
-824.312
-81.773
221.122
405.747
-5.63388
265.779
415.268
463.829
584.182
518.158
589.324
622.267
1060.12
769.612
601.812
450.639
-357.835
139.23
425.922
720.07
-296.031
194.863
345.231
725.689
-892.445
-65.4621
284.682
602.632
-689.042
69.8052
312.173
888.437
140.922
340.866
456.951
614.445
58.95
302.986
348.187
526.194
616.592
526.758
448.954
363.684
431.103
412.789
349.252
335.011
-1307.23
-284.872
231.642
780.184
-1638.91
-340.505
100.241
977.179
-1254.12
-245.232
251.811
794.8
-1575.61
-314.137
102.006
966.117
-1166.57
-185.034
209.793
691.797
-1429.36
-264.013
71.0146
881.073
-778.253
-31.0668
196.976
508.305
-1480.06
-222.95
80.3095
1096.3
-727.659
29.7509
224.57
692.846
-1531.26
-262.444
25.8084
690.535
-668.3
-100.577
30.1598
176.025
-1430.51
-224.258
45.8019
693.172
-636.028
-87.9986
34.4344
174.032
-1226.34
-149.925
57.0613
673.99
-541.677
-56.8285
49.1821
181.896
-1006.08
-88.1431
43.0168
605.805
-443.686
-25.0867
51.5764
175.322
-736.895
11.9085
93.7211
520.324
-230.908
47.365
69.8326
171.709
-329.554
147.509
243.073
481.206
103.533
224.245
204.433
240.57
-605.801
42.0509
160.529
495.443
-25.6735
143.75
136.587
206.451
4.3297
259.81
291.521
435.123
231.956
287.325
251.37
254.341
334.949
352.764
299.273
314.073
360.537
331.755
263.827
234.032
108.561
32.0569
13.5384
7.76548
5.76216
46.0892
15.3823
6.92248
4.0407
2.99879
127.673
46.9153
23.3173
14.3022
10.8328
73.9919
34.0812
18.7968
11.9349
9.12632
157.605
65.8915
35.2096
22.0542
16.7861
187.807
99.0517
57.7875
37.2611
28.6183
208.261
114.35
67.449
43.5313
33.3673
233.59
140.434
85.6842
55.9531
42.9898
188.427
87.0205
48.7101
31.002
23.7946
160.077
76.8921
43.65
27.8266
21.3578
170.062
71.5109
38.8219
24.3696
18.5897
141.263
71.7897
41.7825
26.7621
20.5827
202.749
99.9079
57.0275
36.4619
27.9417
164.189
86.9549
50.8856
32.754
25.1774
194.471
114.181
69.2813
45.1701
34.6931
161.996
94.396
57.1079
37.1856
28.5727
117.513
28.3193
10.8858
6.03853
4.43399
54.4711
11.3816
4.11823
2.21594
1.59587
127.127
36.9883
16.7163
9.93776
7.42885
57.9662
14.5407
6.26646
3.66997
2.70801
131.658
44.9679
22.5201
13.8131
10.3781
66.1209
24.571
13.203
8.37401
6.32411
147.358
63.3225
35.06
22.0467
16.702
87.5275
38.0622
21.4844
13.6139
10.3057
125.506
70.8408
42.4614
27.4603
21.0986
-1732.96
-3256.05
-1775.23
-3256.62
-1921.65
-3272.28
-2100.1
-3350.63
-2026.7
-3362.7
-788.645
-1237.8
-1317.97
-2063.45
-392.562
-584.272
-107.786
-164.498
-8285.05
-1956.61
-444.399
-98.4889
-24.2802
-2227.54
-599.535
-158.614
-35.8073
-7.71409
-8145.15
-1911.63
-434.353
-95.5439
-23.7456
-2270.8
-668.933
-163.759
-37.8035
-9.31989
-7708.6
-1803.21
-409.143
-90.0251
-22.4259
-2197.34
-644.4
-157.461
-36.2009
-8.96389
-7002.67
-1629.63
-369.493
-81.3559
-20.2963
-2111.21
-608.368
-147.122
-33.5848
-8.28203
-5852.06
-1357.01
-308.162
-67.9996
-16.9988
-1967.89
-554.964
-133.154
-30.2647
-7.45119
-2802.73
-677.482
-156.238
-34.7058
-8.68837
-948.168
-271.249
-64.6106
-14.4506
-3.55457
-4149.45
-990.164
-226.794
-50.1581
-12.541
-1400.59
-396.703
-95.366
-21.691
-5.38236
-1650.24
-402.065
-93.105
-20.7746
-5.20875
-523.77
-156.004
-36.872
-8.24126
-2.04692
-565.2
-136.958
-31.7786
-7.1131
-1.78412
-201.096
-54.023
-11.6879
-3.35819
-0.634191
216.324
-1009.03
-5238.7
901.254
-6298.07
-2760.52
-6094.22
-2790.48
-11051.5
-5884.22
-12394.2
-6564.06
-136.24
-541.992
-851.292
-1003.13
-901.809
-373.007
-223.282
-839.421
-1273.9
-1405.87
-1133.22
-390.395
-115.826
-124.237
-435.105
-438.39
-622.532
-615.557
-600.712
-567.37
-538.315
-512.516
-423.512
-375.38
844.937
2200.98
3566.05
2525.92
2324.64
1121.19
802.809
2308.93
3731.11
4316.9
3600.15
1641.46
-122.874
-103.882
-78.7304
-49.0666
-16.6618
-489.516
-414.601
-314.826
-196.517
-66.7909
-768.826
-651.122
-494.407
-308.614
-104.892
-905.679
-766.746
-581.994
-363.188
-123.424
-814.019
-688.878
-522.582
-325.906
-110.707
-338.246
-287.131
-217.748
-135.328
-45.799
-201.276
-170.069
-128.83
-80.2649
-27.2525
-757.746
-641.398
-486.79
-303.761
-103.226
-1149.67
-972.915
-738.288
-460.686
-156.561
-1267.97
-1072.34
-813.334
-507.393
-172.426
-1021.31
-863.078
-654.225
-408.012
-138.646
-352.801
-298.758
-226.558
-141.123
-47.8836
-104.533
-88.4499
-67.0914
-41.8394
-14.2119
-112.189
-94.9945
-72.1075
-44.9937
-15.2884
-393.108
-333.079
-253.016
-157.975
-53.6969
-396.135
-335.698
-255.045
-159.262
-54.1379
-562.399
-476.475
-361.91
-225.951
-76.7998
-556.067
-471.073
-357.779
-223.36
-75.9179
-542.647
-459.676
-349.067
-217.873
-74.0392
-512.279
-433.713
-329.197
-205.411
-69.7972
-486.1
-411.464
-312.079
-194.521
-66.0404
-462.167
-390.664
-296.013
-184.438
-62.6182
-382.49
-323.357
-244.443
-151.673
-51.3082
-338.126
-285.261
-215.545
-133.9
-45.366
752.092
629.69
476.584
299.146
102.512
1951.12
1629.22
1233.04
776.323
267.413
3126.39
2595.57
1969.52
1254.77
440.404
2199.69
1822.49
1387.33
888.853
313.271
2056.09
1708.37
1293.9
813.48
264.288
1022.38
867.033
665.455
418.966
132.528
715.394
599.018
452.624
283.259
96.8008
2052.64
1716.11
1296.77
813.004
278.603
3297.71
2747
2076.64
1308.11
451.387
3791.19
3146.02
2379.9
1506.87
523.901
3161.69
2623.93
1987.1
1259.56
436.252
1456.92
1221.56
932.836
593.834
205.308
301.173
704.091
1007.47
1150.51
1036.79
510.021
451.288
1060.09
1477.23
1577.66
1259.84
473.844
246.121
234.344
560.236
544.348
735.909
710.774
694.212
639.917
620.835
525.058
560.817
418.403
-688.754
-1963.37
-3154.12
-1973.64
-1647.48
-378.926
-733.388
-2195.86
-3480.91
-3867.18
-2953.7
-871.234
272.48
231.272
176.006
110.062
37.4439
636.657
539.987
410.646
256.642
87.2862
910.749
772.239
587.11
366.857
124.759
1039.88
881.565
670.112
418.672
142.373
937.354
794.841
604.256
377.514
128.367
463.74
395.247
301.311
188.24
63.9262
408.207
346.387
263.559
164.793
56.0615
958.187
812.349
617.551
385.871
131.228
1334.63
1130.95
859.41
536.868
182.563
1424.6
1206.54
916.499
572.44
194.659
1137.09
962.631
731.034
456.588
155.278
429.178
364.502
277.329
173.253
58.8877
222.686
189.018
143.853
89.9547
30.6024
212.023
179.955
136.944
85.6281
29.1291
506.653
429.798
326.899
204.318
69.4906
492.289
417.611
317.625
198.518
67.5173
665.401
564.347
429.144
268.18
91.202
642.624
544.971
414.367
258.926
88.0522
627.766
532.477
404.919
253.03
86.0442
578.43
490.405
372.782
232.895
79.1909
561.737
476.693
362.553
226.513
77.0065
474.513
402.187
305.614
190.865
64.8848
508.614
432.408
329.05
205.414
69.7516
378.397
320.856
243.767
152.129
51.6785
-609.277
-506.876
-381.882
-239.343
-82.0744
-1734.23
-1443.1
-1089.91
-686.26
-236.742
-2747.44
-2267.17
-1714.62
-1093.37
-385.401
-1676.6
-1355.07
-1012.55
-643.812
-227.179
-1408.13
-1125.32
-822.177
-500.728
-151.867
-310.277
-224.329
-143.62
-71.6386
-7.69717
-652.291
-545.166
-411.435
-257.426
-88.005
-1950.29
-1629.18
-1230.66
-771.785
-264.637
-3068.9
-2550.19
-1924.91
-1212.39
-418.731
-3374.79
-2782.7
-2095.4
-1324.7
-461.019
-2557.83
-2092.22
-1566.52
-987.346
-341.307
-734.646
-582.846
-425.265
-263.839
-89.872
-1387.6
-877.586
-201.317
733.458
1036.49
1318.96
634.665
-10627.8
-1606.17
-3049.52
-1463.89
299.893
-3941.67
890.166
2528.36
1218.75
-5749.95
-2589.83
-376.607
-492.73
-3301.11
-1202.93
-205.238
-974.457
2228.46
1422.18
-466.846
-108.411
-7589.35
-3527.45
-4153.51
-1995.62
-3473.15
-3211.98
-1017
1446.07
-314.998
-667.415
-446.156
-404.395
-532.232
-634.685
-538.172
-344.518
-240.09
-188.001
-107.622
-165.618
-130.046
-97.2843
-64.0621
-23.4431
663.49
562.694
427.49
266.764
90.6423
935.141
790.661
598.986
372.979
126.547
1190.07
1006.45
762.847
475.315
161.343
575.31
487.355
367.978
227.254
76.4246
-7676.13
-6949.79
-6370.03
-6589.47
-7028.91
-1030.5
-712.371
-880.115
-1062.1
-768.068
-2141.35
-1591.94
-1416.75
-1280.54
-811.988
-938.608
-626.045
-596.12
-553.169
-255.14
274.675
222.342
145.435
66.0665
11.6457
-3296.94
-2715.45
-2108.93
-1452.03
-592.224
805.131
673.56
496.524
296.29
95.2732
2202.37
1803.52
1337.16
825.977
280.308
1094.9
918.995
689.799
425.382
142.919
-4043.7
-3810.5
-3516.44
-3678.51
-3984.35
-1773.56
-1277.03
-1112.76
-974.983
-581.753
-291.13
-250.172
-245.418
-226.4
-115.451
-395.648
-320.895
-266.441
-203.852
-88.903
-2759.17
-2243.24
-1740.45
-1190.5
-475.595
-1013.23
-827.758
-648.16
-445.544
-169.184
-153.453
-113.823
-88.8609
-67.1991
-29.1738
-843.106
-695.162
-532.167
-347.09
-124.716
1991.54
1667.2
1252.67
775.81
262.289
1281.98
1080.62
813.879
502.811
169.321
-390.664
-319.423
-253.502
-177.97
-69.7601
-76.9226
-58.155
-53.29
-47.9951
-22.5918
-4633.91
-3264.55
-2928.06
-2999.4
-3024.82
-2562.31
-1920.21
-1482.51
-1108.85
-546.113
-2767.89
-2198.66
-1804.17
-1545.03
-833.833
-1472.28
-1142.73
-885.014
-663.863
-332.517
-2919.51
-2368.57
-1815.88
-1214.36
-462.303
-2216.2
-1455.36
-1224.73
-1045.3
-503.558
-865.633
-705.8
-540.779
-357.757
-131.345
1305.47
1102.81
832.881
516.072
174.226
-240.259
-187.66
-158.528
-127.631
-56.6376
-0.113563
43.6671
105.72
142.408
110.886
7.64596
-18916.1
-16695
-15966
-18194.5
-13858.6
-10968.6
-12526.9
-9514.92
-16341
-14284.7
-15054.4
-14125.5
-13206.9
-11242.2
-13867.1
-15546.9
-13891.4
-12819
-14457.7
-11673.8
-9889.85
-10479.5
-8411.67
-14635.5
-12960.8
-13480.8
-12244.4
-11668.8
-10909
-11223.3
-12191.3
-11170.2
-10148.5
-11101.9
-9691.7
-8319.93
-8758.89
-7535.67
-12234.6
-11062.6
-11387.1
-10339.7
-9901.25
-9162.98
-9383.39
-8498.28
-7993.96
-7167.02
-7598.35
-7171.38
-6431.03
-6515.07
-5975.04
-8784.83
-8852.39
-8287.38
-8334.33
-7385.1
-6672.59
-7391.61
-5429.12
-5188.35
-4618.54
-4818.09
-4802.48
-4348.27
-4306.51
-3986.68
-5811.67
-5790.77
-5553.11
-5408.67
-5052.4
-4563.23
-4919.98
-1953.66
-1884
-1672.57
-1731.62
-1774.57
-1660.03
-1579.79
-1475.12
-2207.2
-2194.19
-2063.21
-1957.2
-1899.63
-1743.92
-1860.44
-7306.19
-7213.82
-10809.8
-11644.8
-6902.45
-6145.75
-9498.48
-7739.36
-5842.7
-4495.68
-5805.23
-4452.64
-5849.1
-5584.41
-4512.22
-7304.24
-6942.22
-9626.79
-10493.4
-6460.36
-5867.76
-8384.97
-7244.35
-5856.36
-4059.14
-5757.67
-4259.08
-5282.22
-5073.21
-4607.95
-6711.11
-6410.88
-8182.36
-8766.72
-6041.54
-5641.73
-7336.64
-6515.98
-4926.07
-4487.61
-4913.9
-4692.87
-4610.91
-4599.27
-4818.25
-5474.39
-5283.54
-6159.66
-6462.13
-5030.32
-4720.81
-5715.81
-5234.45
-4798.2
-4126.28
-4719.09
-4360.82
-4429.73
-4377.51
-4392.58
-3813.54
-3702.32
-4090.24
-4241.37
-3447.21
-3200.92
-3861.49
-3556.17
-3415.44
-3217.03
-3336.19
-3347.08
-3128.33
-3054.4
-3153.16
-1426.77
-1386.19
-1498.62
-1546.78
-1284.05
-1182.59
-1422.69
-1313.19
-1124.97
-1186.56
-1199.17
-1274.89
-1164.2
-1123.54
-1155.91
6988.4
22602.9
5533.91
23672.3
4169.85
24520.4
6623.51
37901
8146.61
52134
8063.51
37904
7749.15
31410
8064.06
27449.2
4884.48
3002.48
13077.4
7730.11
4802.01
2585.7
14363.1
7126.39
5290.7
3800.83
16745.8
11719.3
4003.52
2855.39
16828.1
12157.1
9436.64
3974.32
8120.75
3601.67
3706.96
8771.13
32853.8
8917.97
11742.9
3990.69
42419.4
11539.4
11041.3
3843.85
23401.7
7270.34
11993.1
4193.29
20292.7
6460.46
5432.34
2693.69
8157.42
3161.85
5932.2
3212.29
8123.92
3096.01
7590.16
4313.75
6991.18
3015.85
10443.2
3736.63
3598.07
1250.94
11781.6
8109.41
7320.62
5324.44
13362.7
10980.4
7309.5
6328.38
6867.41
4586.99
9589.3
6336.38
4844.88
3547.04
2484.19
2030.57
4729.2
4086.69
2475.54
2382.21
4608.29
2990.57
2379.31
1511.58
6088.39
3294.75
4516.35
5501.59
8259.34
5868.54
6485.01
9362.01
4055.78
1910.96
2675.64
3164.87
2026.81
835.605
1160
1173.97
7051.32
12749.4
4806.38
14262.6
8366.26
12510
5973.84
14991
9565.49
11373.9
7739.39
14717.1
11694.2
14210.2
8565.36
8193.65
9021.76
14171.9
12825.8
12357.2
12547
18230
11508.9
8651.91
7336.64
8189
12996
14723.6
13095.8
17090.7
16306.2
13454.3
12413.5
16902.6
16008.1
11663.9
11315.8
15907.4
15466.7
10305.4
8027.29
9336.62
8033.08
10061.7
8841.14
10691.9
10126.1
14735.6
14928.1
9647.3
8265.25
8999.95
8458.7
9138.74
9476.65
10219.1
11268.5
13366.6
15224.3
7903.18
6191.58
5456.53
6986.49
10870.4
13325.2
7564.18
12020.2
4555.04
6042.02
6747.08
5538.36
1287.29
4647.73
686.456
1675.05
3873.32
8108.59
1444.48
2820.07
558.034
3894.1
331.81
1364.35
4442.12
4520.59
5044.75
3087.72
7003
5559.13
8238.18
5610.22
982.064
2471.12
2492.17
1385.85
1405.07
1837.58
2004.64
1508.42
10354.3
6254.03
1955.85
11727.1
6694.42
2184.43
9896.64
6174.08
2069.52
11557.3
6697.02
2179.3
9110.84
5662.67
1852.71
11308.9
6745.55
2247.74
5159.37
2729.92
717.334
6447.26
4220.2
1469.77
7582.47
5226.45
1800.14
8697.36
5595.14
1850.89
11224.6
6950.56
2431.59
6177.58
3406.9
1058.67
5982.86
4282.83
1607.97
7008.47
5173.15
1888.75
8780.37
6140.31
2184.09
11339.4
7015.35
2476.8
298.79
1992.6
2809.68
4066.24
2120.18
2451.22
5341.72
5085.66
581.31
1028.58
619.741
1068.08
488.315
1415.09
871.475
1858.17
3219.09
1579.59
4075.22
2355.95
2183.59
3799.99
3378.62
976.234
5946.28
1487.18
-1806.79
788.53
1827.31
1383.98
1282.28
1214.75
9948.32
4699.54
2711.58
1730.19
10087.7
4898.01
3407.29
2188.03
9976.62
5282.21
4962.13
3571.19
3537.52
2597.35
1801.97
1740.98
12531.7
11166.9
5915.94
6156.03
13292.1
12495.7
6563.08
6635.14
5353.92
5531.45
10924.8
9183.81
3553.84
3718.61
2024.04
2278.93
4063.15
4042.42
2265.68
2415.87
3162.79
3404.61
1814.77
2192.14
4860.58
3524.52
4892.39
3623.53
7547.57
4678.08
7262.64
5016.98
2957.95
2548.1
3103.44
2348.79
1694.88
1614.61
1978.19
1376.94
11966.2
8682.88
6253.88
6594.98
11883.1
8839.82
6294.97
6563.31
12296.5
9081.75
6385.9
6359.17
13754.2
14617.3
12742.3
8731.45
5226.19
13860.8
13093.6
12445.4
10558.8
7237.48
12994.1
11943.8
9741.58
7717.05
5106.65
7702.28
7109.07
7389.13
8720.05
7842.03
6900.18
7419.77
8562.48
8020.52
6696.91
7425.98
8361.83
10472.3
7381.12
10013.8
7034.97
8136.56
6699.89
7869.32
6927.15
6850.82
8217.91
8688.94
7541.64
7876.03
6942.5
6938.73
6408.54
6386.61
6517.53
5440.75
7837.42
7037.19
4782.06
4680.68
2787.9
9001.92
6942.59
6274.65
5024.26
3936.31
2411.61
5717.51
4310.54
4744.36
2247.13
1753.62
1012.95
4943.76
3565.04
1744.3
1442.2
4187.52
1913.7
1660.61
887.676
3439.66
3283.36
3204.42
4807.32
4796.03
4696.78
4118.13
6209.32
3410.88
2312.19
2275.21
3220.88
1066.38
542.306
305.869
649.979
4988.53
2080.08
611.841
5854.53
1509.78
399.697
4982.33
2219.16
678.913
5797.92
1550.3
430.333
4550.24
2150.32
553.699
5642.06
1564.12
364.339
4516.13
2245.06
476.607
4276.13
2040.01
466.685
4399.83
2101.74
562.829
4559.41
2132.58
443.73
5576.29
1520.35
226.037
5785.85
2866.83
743.243
5426.5
2687.67
725.44
5140.42
2537.28
734.65
5094.83
2160.6
523.711
6017.99
1404.89
339.674
1872.46
678.33
130.471
-225.596
772.412
295.983
78.8076
-46.7028
1995.09
750.574
191.779
-139.745
989.66
417.985
198.388
92.7602
2148.86
838.288
290.464
-10.9558
1698.37
809.629
329.669
82.5459
1295.46
751.819
298.559
7.67008
1229.1
830.795
510.501
316.285
1788.21
806.495
260.437
-187.089
1543.68
684.678
305.368
-194.207
2119.3
830.328
267.614
-144.556
1926.89
756.941
301.473
-324.715
1437.67
756.422
319.265
-52.8544
1188.26
610.185
334.176
8.56567
1068.86
674.175
417.218
266.328
821.548
521.115
358.544
219.785
2413.14
824.247
126.315
-446.734
2425.89
765.302
173.011
-615.409
2412.56
838.367
151.562
-422.935
2347.78
744.463
182.979
-593.644
2369.31
843.821
231.052
-303.627
2189.96
705.701
227.974
-487.846
2075.16
780.733
322.615
-47.6991
2401.17
791.742
325.582
-571.447
1867.35
701.972
327.155
-133.206
1952.07
543.988
157.445
-421.843
784.731
198.666
45.3416
-89.5546
1998.97
576.745
178.363
-398.482
809.004
212.823
58.5198
-72.6999
2024.01
617.396
224.429
-350.161
818.268
230.633
76.9487
-53.0747
1820.94
583.031
259.384
-277.041
790.352
238.166
105.483
-18.3454
1663.43
580.958
288.73
-161.514
701.675
250.9
145.047
29.7995
1166.86
475.007
236.698
-43.1778
657.702
331.036
207.824
114.351
1347.2
479.445
230.515
-113.431
662.92
285.668
176.371
72.3124
940.435
463.256
266.198
48.3155
593.068
352.411
233.713
155.247
665.098
424.348
299.22
193.108
498.455
354.856
258.476
201.226
-20.7639
8.92823
9.40334
6.84246
5.37271
-3.47737
5.88146
5.20364
3.70398
2.90152
12.1517
27.0964
20.1231
13.7769
10.6679
31.7425
26.2133
17.3944
11.6052
8.9223
47.2562
48.2926
33.0437
22.3005
17.2274
129.585
88.6066
56.2821
37.2039
28.5592
156.635
104.962
66.5803
44.1001
33.9551
226.938
139.155