/*--------------------------------*- C++ -*----------------------------------*\
  =========                 |
  \\      /  F ield         | OpenFOAM: The Open Source CFD Toolbox
   \\    /   O peration     | Website:  https://openfoam.org
    \\  /    A nd           | Version:  11
     \\/     M anipulation  |
\*---------------------------------------------------------------------------*/
FoamFile
{
    format      ascii;
    class       volScalarField;
    location    "2.8";
    object      T;
}
// * * * * * * * * * * * * * * * * * * * * * * * * * * * * * * * * * * * * * //

dimensions      [0 0 0 1 0 0 0];

internalField   nonuniform List<scalar> 
5712
(
540.046
555.666
529.988
548.874
515.385
539.511
490.033
518.736
489.609
512.333
512.233
534.442
525.892
545.093
534.842
551.947
507.099
487.817
526.181
498.262
479.913
459.695
499.066
468.987
547.909
555.27
560.165
564.202
538.12
547.225
554.168
559.887
538.499
523.989
517.031
507.537
535.285
548.583
544.643
544.333
508.006
511.995
521.9
521.053
478.515
481.854
551.454
553.493
527.329
533.163
560.203
562.787
560.263
567.928
567.281
570.844
553.816
565.388
564.034
569.54
540.881
559.884
551.501
565.009
559.471
568.092
562.566
569.18
474.204
462.724
481.167
464.957
443.233
432.953
450.709
435.543
507.758
492.762
501.367
490.455
486.198
466.022
487.55
465.809
455.87
436.905
457.297
436.853
512.386
493.83
513.681
493.686
530.989
557.05
519.561
548.981
525.069
553.515
516.639
546.156
535.26
559.109
520.964
550.478
536.602
559.861
521.03
551.154
554.564
543.194
564.666
556.279
545.404
534.106
561.003
551.502
531.515
520.93
554.546
544.274
460.309
423.976
491.461
516.491
546.472
418.591
454.937
486.255
510.022
537.656
423.757
456.904
486.486
512.378
540.548
522.974
505.665
527.519
510.976
517.246
501.204
525.521
508.785
508.06
493.06
522.33
505.777
408.929
397.121
446.531
434.721
476.647
464.035
499.687
485.969
520.612
505.197
412.914
399.976
447.604
437.92
477.602
467.554
502.612
490.86
523.385
509.997
450.816
445.857
449.052
444.238
416.99
398.779
416.741
397.561
478.591
477.024
480.453
477.836
446.533
442.897
446.412
442.952
415.866
397.311
415.962
397.52
475.768
475.672
475.619
475.783
505.618
504.018
527.236
524.903
506.194
503.138
526.961
522.728
504.146
503.51
527.093
525.409
502.779
502.584
525.937
524.319
487.49
473.929
467.021
490.389
475.699
468.521
484.287
470.516
463.316
488.296
473.083
465.536
476.389
462.569
455.295
485.181
468.842
460.671
384.742
376.427
372.604
421.308
409.879
403.879
449.419
435.558
427.84
469.348
454.49
446.731
483.535
465.305
456.009
386.152
375.662
370.723
426.542
414.352
407.935
454.129
439.196
430.811
473.562
455.669
445.876
485.519
464.778
453.895
414.793
406.065
420.372
411.776
445.722
430.895
455.961
438.359
391.155
368.943
392.359
370.946
392.4
371.639
394.283
373.804
393.913
389.943
393.203
387.693
374.93
378.673
415.909
418.762
443.747
446.553
397.221
401.634
397.115
399.865
381.785
385.045
347.216
330.01
352.699
333.552
349.789
330.536
355.218
334.59
353.859
331.18
361.126
336.472
365.096
339.71
367.119
341.739
388.896
379.572
396.386
383.096
414.317
404.242
421.692
407.443
376.076
362.226
368.729
358.675
400.691
385.102
402.62
385.774
426.233
409.195
427.899
409.502
380.255
364.348
382.334
365.221
356.674
333.573
345.259
327.365
349.853
329.294
341.954
324.879
360.859
336.76
347.289
329.003
363.19
338.951
348.229
329.929
330.568
318.903
323.049
315.125
332.712
321.512
323.303
315.821
336.996
327.532
324.149
317.973
370.038
393.431
352.745
339.974
323.872
388.579
365.409
346.131
333.855
319.798
393.139
369.954
351.392
336.93
321.829
308.863
299.234
307.008
298.023
311.958
302.314
308.416
299.565
318.15
308.462
311.18
302.418
378.542
366.892
355.601
344.222
338.378
328.149
326.169
316.178
314.593
305.838
381.915
367.723
359.405
345.774
342.345
330.16
329.033
317.428
316.731
307.146
363.566
345.453
366.654
347.449
386.548
366.982
388.92
367.588
348.5
332.094
345.566
329.863
369.269
348.733
370.01
349.34
390.611
367.925
391.085
368.354
351.157
333.658
351.928
334.22
332.413
317.961
318.361
306.674
330.819
316.218
317.591
305.995
333.83
319.228
318.878
306.869
335.377
319.931
319.77
307.71
288.98
284.081
282.185
283.227
279.284
277.969
292.477
287.076
284.952
284.919
280.79
279.293
298.921
293.076
290.672
287.558
282.749
280.936
355.547
348.189
344.877
333.789
327.364
324.664
318.279
312.1
309.705
305.594
298.822
295.916
289.451
283.803
281.591
354.131
344.657
340.633
333.176
324.45
320.733
318.21
310.134
306.825
304.544
297.114
294.312
288.175
282.911
280.881
317.022
308.705
303.041
298.241
318.621
309.312
303.184
298.158
317.108
308.805
303.173
298.364
319.173
309.629
303.449
298.4
317.048
308.897
303.481
298.753
319.6
309.952
303.873
298.824
321.13
310.768
304.102
298.788
322.441
311.627
304.566
299.036
318.536
309.769
304.033
299.09
316.378
309.292
304.198
299.723
316.542
308.887
303.774
299.236
315.206
308.663
303.905
299.722
320.184
310.607
304.339
299.146
317.369
309.884
304.526
299.932
321.503
311.395
304.781
299.474
318.207
310.447
304.926
300.3
314.417
307.787
302.912
298.544
311.285
306.745
302.765
299.018
314.411
307.833
303.022
298.675
311.513
306.86
302.85
299.11
314.515
307.954
303.243
298.966
312.194
307.165
303.045
299.297
314.266
308.01
303.48
299.381
312.725
307.447
303.284
299.572
313.939
308.074
303.681
299.815
308.691
305.975
302.505
299.879
307.149
305.592
302.404
300.178
309.211
306.173
302.613
299.965
307.73
305.806
302.508
300.247
310.153
306.548
302.798
300.094
308.722
306.19
302.686
300.367
311.284
307.038
303.098
300.314
309.835
306.664
302.937
300.541
312.344
307.607
303.465
300.558
310.742
307.168
303.23
300.753
313.805
308.674
304.102
300.97
312.023
308.231
303.968
301.303
313.115
308.153
303.773
300.746
311.387
307.704
303.583
301.009
314.422
309.175
304.414
301.192
312.661
308.779
304.356
301.61
315.084
309.685
304.795
301.51
313.365
309.339
304.775
301.955
293.172
289.452
286.642
284.775
283.845
293.167
289.461
286.65
284.781
283.85
293.245
289.492
286.666
284.79
283.856
293.262
289.515
286.682
284.801
283.865
293.345
289.543
286.695
284.809
283.871
293.377
289.58
286.721
284.826
283.884
293.521
289.669
286.776
284.862
283.912
293.729
289.797
286.855
284.915
283.952
293.478
289.621
286.742
284.839
283.894
293.606
289.665
286.764
284.852
283.904
293.429
289.58
286.715
284.821
283.88
293.541
289.622
286.737
284.835
283.89
293.607
289.701
286.792
284.872
283.919
293.727
289.738
286.809
284.882
283.927
293.805
289.821
286.866
284.921
283.957
293.903
289.842
286.873
284.924
283.959
293.197
289.447
286.635
284.77
283.841
293.229
289.444
286.631
284.767
283.838
293.253
289.475
286.652
284.78
283.849
293.271
289.466
286.644
284.775
283.844
293.344
289.521
286.678
284.797
283.861
293.347
289.506
286.667
284.789
283.855
293.446
289.567
286.704
284.813
283.874
293.431
289.552
286.694
284.806
283.868
293.5
289.594
286.719
284.823
283.881
534.128
531.606
533.624
531.104
533.031
530.641
533.11
530.843
534.858
532.69
538.473
538.915
537.493
537.15
538.803
539.513
538.851
539.405
565.15
571.325
572.623
572.916
572.979
558.539
569.515
572.214
572.828
572.958
565.192
571.346
572.63
572.918
572.979
558.567
569.543
572.22
572.831
572.959
565.186
571.36
572.634
572.919
572.98
558.556
569.561
572.227
572.833
572.959
565.366
571.412
572.647
572.922
572.98
558.752
569.621
572.242
572.836
572.96
565.877
571.522
572.67
572.927
572.981
559.368
569.758
572.271
572.842
572.962
566.286
571.563
572.675
572.927
572.981
560.985
570.072
572.331
572.853
572.964
566.207
571.563
572.677
572.928
572.982
560.389
569.952
572.309
572.85
572.963
566.285
571.556
572.672
572.926
572.981
561.244
570.131
572.343
572.855
572.964
566.322
571.565
572.674
572.927
572.981
561.266
570.148
572.345
572.856
572.964
429.105
464.561
462.172
424.788
408.181
409.657
411.49
414.349
423.169
427.109
453.035
461.999
460.888
470.485
437.133
441.631
424.944
428.294
418.24
420.279
372.082
354.257
307.336
300.777
303.786
300.553
305.399
370.395
364.685
346.857
354.428
351.193
327.283
337.557
333.488
321.372
325.318
319.67
367.031
340.645
324.374
320.492
328.54
324.037
315.902
314.295
312.474
308.724
317.691
314.62
368.728
347.193
355.357
335.867
328.542
341.141
316.594
309.37
319.589
353.436
336.96
322.122
306.093
286.681
342.632
330.334
316.665
301.407
283.603
303.907
299.092
292.769
285.332
277.193
298.058
294.198
289.083
283.036
276.411
300.751
296.453
290.773
284.079
276.763
297.858
294.029
288.953
282.952
276.382
302.188
297.655
291.68
284.646
276.957
351.855
334.443
319.23
303.5
285.627
346.104
328.746
313.795
298.709
282.235
336.349
324.499
311.279
297.007
281.464
338.373
322.569
308.546
294.634
280.434
335.826
320.362
306.622
293.19
279.809
320.9
312.654
302.584
291.299
279.213
328.894
318.548
306.64
293.741
280.07
325.513
315.79
304.484
292.269
279.502
316.01
308.838
299.843
289.615
278.63
319.179
311.2
301.434
290.524
278.926
314.571
307.689
298.999
289.088
278.447
350.383
334.123
319.444
303.803
285.775
331.999
321.649
309.545
296.053
281.129
318.628
311.022
301.533
290.727
279.035
315.374
308.475
299.724
289.642
278.669
322.171
313.933
303.788
292.241
279.614
318.469
311.055
301.716
290.947
279.141
311.453
305.348
297.473
288.283
278.21
310.042
304.162
296.548
287.672
277.989
308.424
302.791
295.478
286.972
277.74
305.13
300.088
293.486
285.754
277.33
312.939
306.455
298.175
288.633
278.306
310.304
304.348
296.657
287.719
278
351.49
335.493
320.939
305.194
286.475
337.264
326.127
313.375
299.012
282.497
343.561
330.14
316.382
301.149
283.439
328.46
319.214
307.993
295.143
280.746
322.335
314.24
304.169
292.569
279.743
332.608
322.36
310.273
296.663
281.392
312.049
305.821
297.804
288.473
278.27
305.702
300.57
293.859
285.996
277.415
314.627
307.906
299.339
289.425
278.599
507.092
543.504
500.675
538.588
477.849
520.424
484.043
525.409
489.558
476.225
519.239
492.642
465.51
451.312
493.605
465.114
523.352
536.985
551.751
558.039
517.233
530.566
547.908
554.858
531.735
507.671
511.063
495.132
520.946
542.863
542.56
543.863
505.726
511.443
520.201
520.658
477.015
481.499
549.214
553.002
524.932
532.591
558.45
562.425
550.231
564.62
563.76
569.659
544.182
562.19
560.963
568.452
531.723
556.855
547.097
563.512
557.899
567.531
562.251
569.06
470.132
462.42
478.62
465.005
442.367
435.136
449.939
436.994
504.435
492.094
495.743
488.954
485.064
466.184
487.273
465.903
455.613
437.784
457.278
437.171
510.857
493.597
513.28
493.649
528.253
556.087
518.848
548.708
520.454
551.877
515.188
545.597
533.97
558.638
520.668
550.362
536.254
559.727
520.961
551.124
537.809
523.594
559.331
549.572
530.129
516.729
556.036
545.406
518.787
507.108
550.374
539.472
461.479
434.178
486.635
510.725
544.281
431.289
457.226
480.63
502.802
534.844
431.852
458.534
484.562
510.002
539.605
504.136
490.85
519.486
507.216
500.43
487.762
518.882
506.172
494.391
482.12
517.813
504.867
424.469
415.931
450.411
440.967
472.759
462.089
494.032
482.302
518.89
506.217
423.7
412.987
451.311
444.011
477.297
469.884
501.388
492.12
523.133
511.773
452.965
449.396
450.567
446.583
422.53
406.776
419.864
402.149
479.058
478.054
480.67
479.082
447.459
444.196
446.723
443.362
417.532
399.669
416.495
398.245
476.159
476.325
475.762
475.998
505.653
504.406
527.27
525.118
505.851
503.559
526.848
523.073
504.258
503.784
527.153
525.55
502.834
502.688
525.964
524.371
482.669
479.069
496.562
491.729
479.625
475.486
495.294
489.574
473.776
469.563
493.425
486.455
408.548
403.442
433.49
428.037
454.178
448.307
473.509
467.738
493.06
483.713
403.006
396.963
437.664
430.984
462.089
454.001
480.931
470.962
494.126
481.93
412.748
406.128
421.318
412.834
438.126
426.88
454.26
437.007
395.234
376.097
398.746
378.476
394.73
377.91
398.693
380.117
397.009
392.126
396.201
391.026
380.439
383.457
416.79
419.094
443.402
446.518
399.292
402.356
399.046
400.548
384.913
386.17
360.919
342.746
362.714
343.959
362.334
342.367
363.722
343.566
365.071
341.72
367.807
343.796
369.151
344.305
368.537
343.345
395.424
387.054
399.777
387.5
417.187
409.401
423.031
410.528
381.235
367.376
378.038
367.231
402.506
387.486
403.203
386.55
427.011
410.894
428.178
410.07
383.023
367.153
383.209
366.125
363.262
339.738
350.485
331.909
360.81
338.199
350.33
331.678
364.477
340.423
350.187
331.625
364.334
340.155
349.165
330.788
357.228
351.973
339.818
334.887
358.542
353.637
339.227
334.532
360.718
356.905
338.373
334.45
390.104
410.442
373.512
357.474
335.556
408.965
390.014
373.177
356.436
333.497
406.837
385.642
366.373
349.67
331.003
345.295
337.28
327.878
317.143
347.777
340.312
328.245
317.93
351.706
345.068
328.831
319.063
402.593
394.794
383.886
376.89
367.301
361.217
350.45
343.489
328.409
319.047
398.784
386.953
378.055
366.568
359.515
348.659
343.078
331.819
326.163
315.956
373.569
357.053
372.077
353.75
395.322
378.22
393.564
373.663
354.03
337.928
355.264
340.205
372.019
351.902
370.866
350.296
392.946
370.98
391.814
369.277
354.026
336.63
352.823
335.121
337.41
322.713
322.317
310.127
339.205
324.325
323.811
311.546
336.531
321.722
321.096
308.76
336.259
320.721
320.475
308.289
330.453
328.102
299.532
297.648
334.44
331.661
300.747
298.628
339.521
335.251
302.129
298.085
387.805
382.788
370.388
365.858
355.216
351.108
335.939
329.938
301.181
294.934
376.38
371.419
356.291
351.762
338.391
334.11
319.391
314.633
294.647
289.906
325.738
314.359
306.765
300.695
326.341
314.461
306.621
300.441
325.238
314.122
306.663
300.625
325.923
314.185
306.503
300.418
324.29
313.704
306.679
300.817
325.123
313.731
306.455
300.544
324.733
313.281
305.832
299.953
323.724
312.533
305.194
299.466
323.09
312.949
306.269
300.641
319.937
311.891
306.117
301.157
322.722
313.097
306.673
301.183
320.315
312.293
306.48
301.539
323.013
312.617
305.777
300.178
319.488
311.459
305.722
300.873
322.467
312.087
305.279
299.832
318.914
310.977
305.333
300.627
324.508
314.095
307.024
301.261
322.619
313.679
307.265
302.052
324.024
313.897
306.977
301.261
322.331
313.553
307.201
302.028
323.231
313.564
306.934
301.357
321.914
313.329
307.084
301.99
321.849
313.046
306.862
301.598
321.268
313.028
306.982
302.021
320.459
312.559
306.77
301.927
320.672
313.301
307.244
303.376
319.302
313.088
307.312
303.95
320.609
313.222
307.201
303.35
319.276
313.012
307.26
303.911
320.397
313.043
307.061
303.234
319.117
312.843
307.13
303.816
319.933
312.743
306.916
303.123
318.713
312.571
306.967
303.698
319.09
312.296
306.728
303.022
317.897
312.181
306.752
303.555
317.186
311.231
306.021
302.539
315.683
311.061
306.075
303.031
318.071
311.771
306.389
302.795
316.718
311.648
306.445
303.326
316.401
310.706
305.593
302.191
314.781
310.466
305.634
302.671
315.733
310.193
305.189
301.849
314.049
309.89
305.196
302.306
294.601
290.311
287.168
285.118
284.109
294.531
290.288
287.157
285.113
284.104
294.548
290.275
287.144
285.103
284.097
294.454
290.237
287.125
285.091
284.088
294.494
290.231
287.115
285.083
284.082
294.365
290.177
287.087
285.066
284.068
294.208
290.086
287.032
285.03
284.041
293.99
289.956
286.953
284.978
284.001
294.367
290.155
287.068
285.053
284.058
294.393
290.133
287.05
285.039
284.048
294.478
290.205
287.097
285.071
284.072
294.482
290.179
287.077
285.057
284.061
294.219
290.071
287.018
285.02
284.033
294.263
290.058
287.005
285.01
284.025
294.018
289.95
286.945
284.973
283.996
294.09
289.954
286.941
284.969
283.993
294.697
290.337
287.178
285.124
284.113
294.78
290.354
287.184
285.128
284.116
294.661
290.311
287.161
285.113
284.104
294.751
290.334
287.171
285.119
284.109
294.609
290.27
287.134
285.095
284.09
294.695
290.296
287.146
285.102
284.096
294.573
290.232
287.108
285.077
284.077
294.62
290.249
287.118
285.083
284.081
294.54
290.207
287.093
285.067
284.069
531.047
529.648
531.212
529.783
531.699
530.26
532.812
531.262
535.039
533.371
538.574
539.067
537.614
537.411
538.872
539.605
538.876
539.437
564.749
571.265
572.613
572.914
572.978
557.939
569.397
572.192
572.824
572.958
564.881
571.299
572.621
572.916
572.979
558.124
569.451
572.203
572.828
572.958
565.016
571.332
572.629
572.918
572.979
558.344
569.508
572.216
572.83
572.959
565.331
571.405
572.645
572.921
572.98
558.747
569.606
572.238
572.835
572.96
565.908
571.525
572.671
572.927
572.981
559.462
569.765
572.271
572.842
572.961
566.309
571.568
572.676
572.927
572.981
561.039
570.083
572.334
572.854
572.964
566.238
571.569
572.678
572.928
572.982
560.468
569.966
572.312
572.85
572.963
566.3
571.559
572.673
572.926
572.981
561.276
570.139
572.344
572.856
572.964
566.327
571.566
572.674
572.927
572.981
561.276
570.15
572.345
572.856
572.964
429.325
464.375
461.402
425.393
419.059
425.041
416.704
424.136
445.59
461.615
449.402
463.554
283.562
284.203
285.634
287.932
291.226
295.636
284.107
284.761
286.212
288.52
291.761
296.004
283.147
282.942
283.833
283.699
285.365
285.396
287.845
288.188
291.357
292.097
295.832
296.681
301.244
308.041
316.17
325.676
334.772
340.723
301.273
307.502
314.532
321.849
328.262
332.249
282.557
281.113
279.175
276.861
274.314
283.137
281.604
279.548
277.094
274.393
284.429
282.699
280.379
277.613
274.569
286.504
284.455
281.712
278.445
274.852
289.474
286.966
283.616
279.632
275.255
293.443
290.315
286.152
281.213
275.792
283.05
281.531
279.492
277.06
274.381
283.64
282.03
279.871
277.296
274.461
284.95
283.139
280.713
277.822
274.64
287.033
284.901
282.05
278.655
274.923
289.954
287.369
283.92
279.822
275.32
293.77
290.588
286.357
281.341
275.836
282.183
280.796
278.933
276.711
274.262
281.997
280.638
278.814
276.636
274.237
282.802
281.321
279.332
276.96
274.347
282.681
281.218
279.254
276.911
274.331
284.187
282.494
280.223
277.516
274.536
284.214
282.517
280.241
277.527
274.54
286.426
284.389
281.663
278.414
274.841
286.736
284.652
281.862
278.539
274.884
289.593
287.068
283.694
279.681
275.272
290.261
287.633
284.122
279.948
275.362
293.623
290.468
286.268
281.284
275.816
294.387
291.113
286.755
281.587
275.919
298.473
294.547
289.35
283.205
276.47
304.536
299.624
293.18
285.596
277.285
311.715
305.593
297.68
288.423
278.259
319.965
312.387
302.818
291.708
279.424
327.615
318.589
307.541
294.827
280.599
332.526
322.544
310.572
296.868
281.394
298.496
294.564
289.363
283.216
276.474
304.058
299.227
292.884
285.414
277.223
310.294
304.429
296.81
287.875
278.067
316.721
309.759
300.835
290.419
278.951
322.284
314.34
304.303
292.638
279.738
325.72
317.166
306.451
294.026
280.236
283.676
284.551
286.236
288.822
292.452
297.262
284.224
285.117
286.824
289.412
292.96
297.525
283.263
283.062
284.187
284.068
285.983
286.044
288.771
289.175
292.651
293.473
297.617
298.632
303.289
310.403
318.643
327.875
336.274
341.253
303.089
309.505
316.531
323.573
329.431
332.663
282.661
281.201
279.242
276.904
274.328
283.453
281.873
279.753
277.223
274.437
284.976
283.164
280.735
277.836
274.645
287.312
285.144
282.239
278.776
274.965
290.59
287.92
284.347
280.093
275.412
294.926
291.587
287.13
281.83
276.003
283.156
281.621
279.561
277.103
274.396
283.964
282.306
280.082
277.428
274.506
285.506
283.613
281.076
278.049
274.718
287.844
285.594
282.58
278.989
275.037
291.045
288.303
284.637
280.273
275.474
295.158
291.779
287.273
281.919
276.034
282.287
280.885
279.001
276.753
274.277
282.106
280.731
278.884
276.68
274.252
283.124
281.594
279.541
277.09
274.392
283.016
281.503
279.472
277.047
274.377
284.747
282.971
280.588
277.745
274.614
284.803
283.019
280.624
277.767
274.622
287.267
285.107
282.212
278.759
274.959
287.633
285.418
282.448
278.907
275.009
290.772
288.076
284.467
280.167
275.438
291.515
288.706
284.946
280.467
275.54
295.252
291.866
287.344
281.963
276.049
296.169
292.645
287.935
282.333
276.174
300.346
296.16
290.596
283.995
276.74
306.711
301.509
294.646
286.53
277.606
314.011
307.602
299.258
289.437
278.61
322.032
314.22
304.278
292.658
279.756
329.048
319.876
308.581
295.514
280.844
333.037
323.007
310.95
297.12
281.485
300.157
295.994
290.468
283.915
276.713
305.898
300.818
294.119
286.199
277.493
312.14
306.035
298.064
288.677
278.344
318.323
311.163
301.941
291.131
279.198
323.377
315.306
305.069
293.135
279.911
326.108
317.51
306.725
294.204
280.299
372.893
354.949
310.188
303.083
306.989
303.118
308.489
379.908
378.278
356.271
368.768
334.749
347.076
327.864
332.286
325.372
373.365
347.395
330.601
325.611
334.354
328.515
319.158
318.294
317.384
312.89
323.17
319.227
371.262
349.203
359.835
338.904
332.38
346.344
320.424
313.02
324.088
354.319
337.791
322.841
306.616
286.895
343.329
330.984
317.213
301.788
283.749
306.536
301.375
294.548
286.466
277.583
300.171
296.019
290.492
283.929
276.717
303.695
298.999
292.75
285.336
277.195
300.209
296.057
290.521
283.946
276.722
305.033
300.121
293.599
285.868
277.377
362.682
344.932
328.217
309.796
288.103
361.577
343.663
326.4
307.275
285.274
346.027
333.695
318.992
302.219
283.342
354.957
338.525
322.034
303.751
283.681
328.177
319.319
308.022
294.884
280.47
338.558
327.651
314.217
298.806
281.859
322.241
314.473
304.395
292.595
279.67
326.104
317.648
306.761
294.066
280.173
320.069
312.687
303.055
291.752
279.379
357.307
340.872
325.276
307.941
287.466
338.698
327.88
314.707
299.52
282.379
324.595
316.41
305.883
293.575
280.031
320.217
312.795
303.178
291.888
279.451
327.763
319.003
307.899
294.949
280.568
322.712
314.849
304.757
292.931
279.834
314.488
308.016
299.579
289.639
278.68
313.771
307.441
299.134
289.336
278.564
313
306.814
298.651
289.013
278.446
308.982
303.444
296.11
287.432
277.908
318.114
311.065
301.852
291.019
279.135
314.615
308.151
299.664
289.659
278.672
354.238
338.084
323.178
306.811
287.146
339.255
327.968
314.908
300.063
282.892
348.164
334.496
320.088
303.725
284.407
331.387
321.873
310.161
296.587
281.263
325.989
317.523
306.815
294.308
280.355
337.739
327.117
314.216
299.321
282.355
315.631
308.98
300.304
290.086
278.83
309.083
303.521
296.17
287.475
277.925
318.863
311.669
302.337
291.369
279.275
280.892
296.135
310.056
322.07
331.536
338.599
489.114
483.45
460.817
466.377
474.309
465.706
451.638
441.471
507.665
522.395
501.576
514.821
492.728
484.566
503.716
479.898
475.298
453.236
457.722
467.545
459.929
445.578
436.826
498.329
509.038
493.009
502.428
484.776
477.205
492.743
467.117
463.744
442.668
445.974
457.695
451.499
436.716
429.287
484.095
494.522
479.839
489.278
473.51
467.094
481.381
453.979
451.478
431.628
434.172
446.637
441.292
426.808
420.378
470.746
481.829
467.315
477.52
462.161
456.017
470.512
444.49
442.456
423.584
425.745
438.253
433.618
419.363
413.461
460.695
472.522
457.761
469.063
453.592
448.161
462.949
438.073
436.267
418.09
420.057
432.491
428.42
414.173
408.673
454.089
467.49
451.397
464.125
447.927
443.076
458.006
412.873
409.811
434.708
438.88
405.54
400.24
427.901
419.542
391.073
371.204
390.096
372.756
386.361
385.728
375.242
408.825
405.962
429.195
432.836
401.956
396.999
423.143
415.369
386.616
367.297
385.788
369.02
382.271
382.082
371.309
402.364
399.823
420.968
423.923
396.247
391.689
415.905
409.159
382.011
362.384
381.123
363.964
377.912
377.663
366.092
394.287
392.06
411.635
414.068
388.71
384.15
407.333
401
375.159
356.168
374.383
357.592
371.446
371.163
359.781
387.77
385.736
404.558
406.711
382.72
378.388
400.674
394.823
369.209
351.423
368.532
352.515
366.095
365.77
354.792
383.085
381.184
399.637
401.631
378.552
374.686
396.002
390.56
365.376
348.213
364.835
349.299
362.654
362.533
351.843
540.64
556.171
530.019
548.832
515.396
539.492
490.022
518.717
489.597
512.31
512.25
534.426
525.943
545.071
535.546
552.586
507.096
487.809
526.167
498.251
479.898
459.682
499.048
468.973
548.359
555.573
560.523
564.432
538.119
547.212
554.115
559.846
538.479
523.982
517.018
507.53
535.275
548.561
544.637
544.328
507.997
511.988
521.891
521.046
478.504
481.844
551.447
553.489
527.321
533.158
560.196
562.785
560.47
568.007
567.425
570.896
553.797
565.38
564.007
569.53
540.869
559.878
551.486
565.002
559.465
568.09
562.563
569.179
474.196
462.717
481.159
464.949
443.222
432.944
450.698
435.534
507.749
492.756
501.36
490.448
486.189
466.015
487.542
465.802
455.86
436.897
457.288
436.845
512.379
493.824
513.675
493.681
530.982
557.047
519.556
548.979
525.061
553.511
516.634
546.153
535.254
559.107
520.96
550.477
536.597
559.859
521.026
551.152
554.832
543.497
564.775
556.428
545.382
534.083
560.992
551.486
531.503
520.918
554.539
544.267
460.302
423.968
491.454
516.483
546.468
418.584
454.931
486.248
510.014
537.651
423.749
456.897
486.479
512.372
540.545
523.274
505.906
527.721
511.142
517.228
501.197
525.514
508.785
508.05
493.054
522.325
505.775
408.924
397.117
446.526
434.717
476.641
464.031
499.68
485.964
520.608
505.196
412.908
399.971
447.599
437.916
477.597
467.55
502.607
490.857
523.382
509.995
450.81
445.852
449.046
444.233
416.983
398.774
416.734
397.556
478.586
477.019
480.448
477.832
446.527
442.893
446.406
442.947
415.86
397.306
415.955
397.515
475.763
475.668
475.614
475.779
505.614
504.014
527.233
524.901
506.19
503.135
526.958
522.726
504.142
503.506
527.09
525.407
502.775
502.58
525.934
524.317
487.691
474.101
467.184
490.545
475.837
468.648
484.288
470.52
463.32
488.301
473.093
465.546
476.388
462.572
455.299
485.183
468.847
460.677
384.74
376.426
372.603
421.305
409.879
403.88
449.417
435.558
427.841
469.347
454.491
446.733
483.536
465.308
456.014
386.149
375.66
370.722
426.539
414.351
407.935
454.127
439.196
430.812
473.56
455.67
445.878
485.518
464.78
453.899
414.746
406.037
420.326
411.749
445.69
430.875
455.929
438.339
391.062
368.957
392.226
370.929
392.324
371.589
394.211
373.763
393.872
389.899
393.173
387.662
374.891
378.637
415.889
418.747
443.731
446.54
397.194
401.617
397.093
399.85
381.76
385.029
347.236
330.004
352.702
333.534
349.768
330.528
355.203
334.586
353.837
331.172
361.104
336.464
365.077
339.701
367.107
341.732
388.879
379.56
396.369
383.086
414.303
404.231
421.678
407.433
376.059
362.217
368.711
358.664
400.677
385.092
402.608
385.766
426.221
409.186
427.889
409.494
380.241
364.339
382.323
365.213
356.66
333.566
345.251
327.36
349.839
329.287
341.945
324.873
360.847
336.753
347.282
328.998
363.181
338.945
348.223
329.925
330.525
318.843
323.04
315.11
332.707
321.511
323.297
315.816
336.986
327.526
324.143
317.968
370.027
393.422
352.734
339.965
323.867
388.571
365.4
346.122
333.847
319.793
393.13
369.944
351.382
336.922
321.824
308.805
299.168
307.004
298.017
311.959
302.318
308.412
299.561
318.147
308.461
311.176
302.415
378.536
366.888
355.594
344.218
338.372
328.146
326.164
316.175
314.589
305.835
381.908
367.718
359.398
345.769
342.338
330.156
329.027
317.425
316.727
307.143
363.558
345.448
366.647
347.444
386.54
366.977
388.913
367.583
348.493
332.09
345.559
329.858
369.262
348.728
370.004
349.336
390.604
367.92
391.078
368.349
351.151
333.653
351.922
334.217
332.408
317.957
318.357
306.671
330.813
316.214
317.587
305.992
333.825
319.225
318.874
306.867
335.373
319.928
319.767
307.708
288.91
284
282.098
283.239
279.271
277.949
292.485
287.085
284.959
284.915
280.792
279.294
298.923
293.079
290.675
287.556
282.749
280.937
355.545
348.188
344.876
333.787
327.363
324.664
318.277
312.1
309.705
305.594
298.823
295.917
289.45
283.803
281.591
354.128
344.655
340.632
333.174
324.448
320.732
318.208
310.133
306.825
304.542
297.113
294.313
288.174
282.911
280.881
317.016
308.699
303.033
298.232
318.602
309.299
303.173
298.147
317.104
308.803
303.172
298.363
319.17
309.627
303.448
298.399
317.044
308.895
303.48
298.752
319.596
309.95
303.871
298.824
321.126
310.766
304.101
298.787
322.438
311.625
304.565
299.036
318.532
309.767
304.032
299.09
316.375
309.29
304.197
299.722
316.539
308.885
303.773
299.236
315.202
308.661
303.904
299.721
320.181
310.605
304.337
299.145
317.366
309.882
304.525
299.931
321.5
311.393
304.78
299.473
318.204
310.445
304.925
300.3
314.414
307.783
302.906
298.535
311.279
306.741
302.76
299.011
314.408
307.831
303.021
298.675
311.51
306.859
302.849
299.11
314.512
307.953
303.242
298.965
312.191
307.163
303.043
299.297
314.263
308.008
303.479
299.38
312.722
307.446
303.282
299.572
313.936
308.072
303.68
299.814
308.686
305.972
302.501
299.872
307.138
305.586
302.401
300.174
309.21
306.172
302.612
299.965
307.729
305.805
302.506
300.246
310.15
306.546
302.797
300.093
308.72
306.188
302.684
300.366
311.281
307.036
303.096
300.313
309.832
306.663
302.935
300.54
312.341
307.605
303.463
300.557
310.739
307.166
303.229
300.751
313.802
308.672
304.1
300.969
312.02
308.229
303.966
301.302
313.112
308.151
303.771
300.745
311.384
307.702
303.582
301.008
314.419
309.173
304.413
301.191
312.658
308.777
304.355
301.609
315.081
309.683
304.793
301.509
313.362
309.337
304.773
301.954
293.168
289.45
286.641
284.774
283.845
293.162
289.458
286.649
284.78
283.849
293.244
289.492
286.666
284.79
283.856
293.262
289.515
286.682
284.801
283.865
293.345
289.543
286.695
284.809
283.871
293.377
289.58
286.721
284.826
283.884
293.521
289.669
286.776
284.862
283.912
293.729
289.797
286.855
284.915
283.952
293.478
289.621
286.742
284.839
283.894
293.606
289.665
286.764
284.853
283.904
293.429
289.58
286.715
284.822
283.881
293.54
289.622
286.737
284.835
283.891
293.606
289.701
286.792
284.872
283.92
293.727
289.738
286.809
284.882
283.927
293.805
289.821
286.866
284.921
283.957
293.902
289.842
286.873
284.924
283.959
293.194
289.445
286.635
284.769
283.841
293.226
289.443
286.631
284.766
283.838
293.253
289.475
286.652
284.78
283.849
293.27
289.466
286.644
284.774
283.844
293.344
289.521
286.678
284.797
283.862
293.346
289.506
286.667
284.789
283.855
293.445
289.567
286.704
284.813
283.874
293.431
289.552
286.694
284.806
283.869
293.5
289.594
286.719
284.823
283.882
534.194
531.682
533.634
531.113
533.034
530.643
533.11
530.843
534.857
532.689
538.471
538.913
537.491
537.149
538.801
539.511
538.849
539.403
565.204
571.339
572.626
572.917
572.979
558.573
569.525
572.216
572.828
572.959
565.189
571.346
572.629
572.918
572.979
558.571
569.544
572.22
572.831
572.959
565.186
571.36
572.634
572.919
572.98
558.557
569.561
572.227
572.833
572.959
565.366
571.412
572.647
572.922
572.98
558.752
569.621
572.242
572.836
572.96
565.876
571.522
572.67
572.927
572.981
559.368
569.758
572.271
572.842
572.962
566.286
571.563
572.675
572.927