/*--------------------------------*- C++ -*----------------------------------*\
  =========                 |
  \\      /  F ield         | OpenFOAM: The Open Source CFD Toolbox
   \\    /   O peration     | Website:  https://openfoam.org
    \\  /    A nd           | Version:  11
     \\/     M anipulation  |
\*---------------------------------------------------------------------------*/
FoamFile
{
    format      ascii;
    class       volScalarField;
    location    "0.2";
    object      gradTz;
}
// * * * * * * * * * * * * * * * * * * * * * * * * * * * * * * * * * * * * * //

dimensions      [0 -1 0 1 0 0 0];

internalField   nonuniform List<scalar> 
5712
(
15444
49487.2
12676.6
49773.9
9170.56
49048.1
12718.1
68043.3
15138
91639
15945.1
71483.6
16267.9
62207.7
17079.3
57442.6
10096.4
6298.94
27030.1
15935.6
9295.3
4584.75
26767.5
12634.7
12765.8
10385.8
40065.9
31488.7
9710.11
8126.67
38532.4
31229.9
22113.9
9668.3
18592.6
8434.04
9843.92
21907.5
64983
17166.4
23790.2
7560.65
76241.2
20224
20148.7
6426.69
50902.8
15618.1
25753
8931.03
48066.8
15019
18749.9
9303.06
24505.8
9984.04
19974.8
10777.7
23420.6
9467.14
23160.1
13890.4
19289
9035.64
27611.8
10633.3
9445.23
3544.28
22186.4
14358.3
13883.8
8902.93
18504
13418.8
10699.3
7299.02
16018.3
10680.5
23188
15406.8
9087.62
5822.1
4272.36
3263.55
6887.54
4743.79
3114.17
2721.39
10595.3
6749.44
5244.85
3360.14
16535.2
10147.9
13639.8
19237.8
22765
18305.3
19664.8
31951.8
10815.1
5791.38
7995.51
11081.8
5276.87
2505.15
3412.85
4033.09
25384.8
43016.4
17080.2
50009.5
28312.6
40430.2
20491.4
51269.5
29968
34234.2
25445.6
48547.7
21339.9
18459.4
21552.7
23456.3
28621.3
15899.9
21319.7
27782
34865.4
58949.3
13979.6
15143.7
17017.7
23296.4
42754.8
45726
33402.4
53972.8
41108.6
40422.5
30662.2
52517.5
39774
32672.3
26419.9
47876.1
37563.1
10243.3
6317.58
14772.4
10667.6
20844.7
16381.7
27720.2
22865.9
43215.9
35464.5
9431.87
6774.99
13081.3
11343.6
17825.4
16762.5
24870.2
23526.6
37796.9
33973.2
11081
6397.05
6876.62
5669.55
10112.2
8060.87
6321.83
6667.74
8316.98
6876.69
13136.7
8011.43
2345.91
3466.82
654.303
996.641
3002.56
4162.34
770.061
1223.94
2610.7
4085.1
715.396
1180.57
10692.3
7141.78
15120.3
6860.31
17281.8
10319.5
24408.7
12532.7
4204.8
3781.14
7809.79
3172.93
2917.32
2485.87
4154.14
2393.74
21296
10169.3
2809.05
24469.9
11131.9
3107.37
20021.5
9774.98
2852.94
23549.3
10829
2994.59
17172.6
8263.91
2297.32
22140.6
10273.9
2825.9
3509.53
1688.04
460.488
6861.67
3497.96
982.773
11059.9
5617.24
1578.2
15537.4
7617.08
2091
21389.7
10054.9
2778.45
4167.87
2001.92
596.301
7477.08
4158.1
1297.98
11306.6
6246.85
1889.38
15952.8
8429.03
2454.48
21598.4
10318.1
2928.44
767.386
1946.11
3739.7
4227.66
3862.69
3207.06
8935.98
7160.85
529.334
444.617
565.332
464.815
417.583
716.129
717.438
975.678
2503.21
1187.86
3014.48
1663.08
1207.75
2197.8
4020.35
419.338
9196.4
1907.56
-2232.63
-385.085
1276.66
403.335
304.993
-130.394
3322.55
900.642
853.911
323.336
3540.61
946.786
1171.85
415.52
3789.63
1034.39
1804.62
648.568
1284.4
426.938
102.955
47.9244
9396.87
6905.07
4560.45
3562.47
13665.1
10783.3
7137.04
5436.59
2779.63
2171.39
5953.62
3910.72
2617.51
2111.18
1044.07
1189
4355.56
3341.87
1933.25
1910.7
1446.12
1274.67
441.691
736.968
1569.92
510.943
1207.15
393.938
2612.3
716.516
1932.45
589.342
743.983
300.128
696.604
217.049
112.569
69.8336
380.897
87.3861
3443.18
1418.11
985.546
621.936
3624.56
1602.29
997.547
637.099
4239.74
2050.72
1060.6
693.763
9659.82
14055.4
6349.78
2775.51
724.83
11319.9
7678.69
5034.23
2743.85
810.113
11135.6
7282.09
4086.65
2018.74
567.943
596.322
238.655
335.204
172.68
751.111
298.592
379.936
199.091
1092.79
467.135
471.38
256.545
7118.84
3658.79
4745.47
2211.21
2539.49
1265.46
1508.05
742.942
521.254
315.785
6050.32
3803.99
3864.4
2259.03
2258.96
1293.24
1206.17
703.501
387.254
292.662
3713.39
1792.61
2261.73
1074.76
6548.73
3536.7
4129.8
2458.55
1251.78
577.729
1977.08
972.232
1869.16
741.686
456.219
189.617
2720.06
1526.91
659.197
415.891
1124.15
408.331
283.086
104.931
569.457
319.911
178.133
158.847
901.188
486.62
249.325
204.226
556.465
223.098
126.785
103.592
111.769
43.2536
-81.7774
-12.8945
85.9102
23.1243
4.804
69.7546
15.1062
2.9947
113.998
31.6021
6.958
82.9218
18.6551
3.78633
176.228
50.4077
11.0007
110.106
25.1991
5.0407
1734.75
743.809
192.691
913.312
334.454
84.6126
517.704
171.044
41.5546
287.957
83.8842
18.0971
141.105
32.1815
5.97205
2099.23
828.205
219.843
1127.98
378.437
90.27
616.721
192.668
43.0119
324.999
94.4355
19.6619
158.816
35.1071
6.55234
169.825
28.0969
3.89812
0.440152
70.476
12.074
1.73782
0.217741
175.999
29.4956
4.27245
0.558417
83.4272
14.441
2.67617
0.487088
184.457
30.9737
5.22077
0.878094
128.727
22.2295
2.77849
0.292192
64.1126
11.8463
0.225701
-0.245661
16.3368
4.4708
0.348349
0.0116003
123.13
22.4286
2.93171
0.14282
80.3121
14.3831
2.68526
0.360282
159.541
27.8721
4.60095
0.649472
115.383
19.9473
3.71207
0.463241
77.453
14.7442
2.00916
0.174023
48.1029
8.99113
1.79758
0.298417
27.0308
5.75575
0.86202
0.143227
16.255
3.34438
0.743542
0.163039
188.753
31.6465
4.69633
0.560754
142.018
25.3234
4.76509
0.699401
187.658
31.4156
4.65591
0.54385
140.772
24.8698
4.75196
0.686017
183.72
30.4861
5.10698
0.718669
140.162
24.137
4.90271
0.757335
142.737
24.3784
4.71928
0.912581
153.881
26.2099
5.91134
1.0144
112.2
19.2335
3.90658
0.583805
82.1068
15.0485
3.31485
0.581048
27.374
5.0068
1.01883
0.207408
89.8592
16.1024
3.46449
0.5903
30.3527
5.43079
1.10143
0.223659
100.575
17.3044
3.68946
0.615573
34.3587
5.8899
1.17135
0.239506
98.2436
16.5349
3.74666
0.616084
36.8441
6.08799
1.26492
0.253046
91.6621
15.4425
3.51519
0.571336
33.6719
5.63914
1.26424
0.24787
54.1022
9.14636
1.78578
0.301562
23.7846
4.14423
0.817958
0.160731
72.0226
12.0031
2.53479
0.425104
28.7766
4.90119
1.04878
0.209895
33.9546
5.80073
1.11009
0.207431
15.0344
2.69266
0.495897
0.104019
12.2135
2.18005
0.472425
0.101392
5.49091
1.05623
0.213609
0.0478337
0.0624587
0.00847652
0.00111749
0.00014739
2.20288e-05
0.0279473
0.00385142
0.000518301
6.98321e-05
1.06682e-05
0.0722559
0.00974464
0.00133433
0.000186622
2.98571e-05
0.0411405
0.00556221
0.00081176
0.000121341
2.05958e-05
0.0767088
0.0103135
0.0014929
0.0002218
3.75119e-05
0.0575275
0.0102939
0.00174091
0.000284683
5.14852e-05
0.0355764
0.00808156
0.00147403
0.000250323
4.64431e-05
0.0216382
0.00538661
0.00109323
0.000200624
3.95044e-05
0.0542434
0.00905389
0.00145626
0.000231238
4.10826e-05
0.0386565
0.00657123
0.00111661
0.000185576
3.41412e-05
0.0699709
0.00973012
0.00145261
0.000222203
3.85511e-05
0.0370103
0.0068357
0.00121198
0.000205577
3.82033e-05
0.0444757
0.00783567
0.0013062
0.000212387
3.84572e-05
0.0303596
0.00539947
0.000958369
0.000165285
3.13863e-05
0.0215597
0.00429308
0.000830979
0.00015159
2.9981e-05
0.0178876
0.0034059
0.000651243
0.000119244
2.37761e-05
0.0641819
0.00802234
0.00101703
0.00013078
1.91196e-05
0.0293426
0.00335701
0.000412014
5.23268e-05
7.60208e-06
0.068635
0.00890359
0.00117266
0.000158043
2.44175e-05
0.0309618
0.0037095
0.00047554
6.32563e-05
9.67737e-06
0.068468
0.00862348
0.00117587
0.000167278
2.73772e-05
0.035031
0.00450105
0.00063838
9.42122e-05
1.59012e-05
0.0652878
0.00906166
0.00138461
0.000215925
3.79876e-05
0.0422483
0.00576558
0.000884668
0.000138595
2.44633e-05
0.0392564
0.00748256
0.00133605
0.000227293
4.22758e-05
3049.44
8776.65
3083.69
8576.87
3264.45
8166.82
3371.79
7763
2896.34
7313.95
330.575
2136.54
1217.02
4003.01
4.43826
965
-31.7131
340.427
41244.6
20420.3
14383.7
11841.1
10382.3
12074.7
6835.64
4977.13
4025
3421.65
40678.7
20105.4
14183
11675.9
10249
12197.7
7119.01
5054.81
4099.66
3551.76
38790.1
19181.5
13535
11141.8
9777.32
11721.3
6844.43
4866.27
3950.49
3425.06
35777.3
17690
12485.5
10273.8
9009.03
11129.9
6458.1
4568.99
3690.44
3181.37
30750.8
15188.7
10725.4
8826.43
7738.74
10288.9
5922.78
4180.43
3370.96
2900.09
16009.2
8151.13
5765.96
4733.52
4139.83
5095.23
2966.76
2098.72
1692.91
1456.58
22851.4
11516.8
8137.57
6684.68
5853.51
7423.02
4323.48
3074.57
2490.85
2150.79
9658
4952.26
3507.86
2881.06
2518.89
2932.2
1735.36
1228.27
990.221
855.848
3345.05
1710.32
1213.33
998.09
873.52
1084.38
579.472
401.318
323.203
274.057
-811.777
407.927
7999.4
-364.039
1003.6
1070
2616.94
3469.99
2544.33
4758.11
4777.84
7220.64
6466.13
7920.03
3247.16
4236.43
2896.42
3445.02
1547.35
1605.08
760.963
279.168
25.9207
1.58541
2.44
2.32057
10.181
5828.4
1693.24
1417.37
1022.52
228.702
100.779
597.358
90.3935
61.7138
61.111
16.7635
3109.2
1070.94
277.171
156.432
451.898
198.754
63.2765
80.8542
9.4141
17.5233
92.8268
67.2779
3285.49
856.328
1573.57
489.253
402.223
1228.35
109.263
12.9158
129.262
363.298
187.41
101.02
51.0454
19.8328
157.423
87.3521
44.6987
20.556
6.39881
18.7344
12.0288
6.75523
3.23654
0.942418
1.26206
0.890114
0.542592
0.276519
0.0826045
1.81194
1.19424
0.685575
0.333519
0.0974083
1.71572
1.12739
0.646494
0.314691
0.0921554
7.5003
4.923
2.82397
1.37575
0.403939
2923.68
1603.38
828.156
393.661
168.704
941.659
500.586
264.184
122.6
42.0257
796.511
443.151
231.06
106.005
34.9563
536.349
263.933
131.374
59.4312
18.1839
120.805
57.6511
28.294
12.6474
3.74699
70.7719
44.295
24.3624
11.5034
3.36341
373.925
215.181
110.447
49.8164
14.8913
63.2227
38.6339
20.5263
9.47098
2.77171
42.5305
26.2265
14.2708
6.69658
1.94848
43.4692
27.3123
15.0369
7.10856
2.07848
11.0135
6.4865
3.3939
1.54806
0.443501
1606.31
907.291
481.028
230.025
96.1731
617.319
348.766
185.557
85.9859
27.8931
188.642
115.842
62.9611
29.522
8.71185
106.491
65.3463
35.4825
16.6225
4.87912
292.552
173.224
91.541
42.1122
12.5355
139.459
87.4187
48.1852
22.7711
6.61322
43.4745
26.8435
14.6506
6.8925
2.01344
57.3772
36.2463
20.0818
9.52449
2.767
6.70906
4.28407
2.41026
1.16134
0.342812
12.65
8.11323
4.55298
2.18021
0.634911
64.6222
40.1571
21.9549
10.3197
3.00209
47.5729
29.9917
16.5994
7.87098
2.29081
1597.1
800.83
427.863
204.309
84.2322
489.281
271.736
139.788
64.0676
20.1157
855.938
486.534
252.846
115.992
37.6162
289.827
165.9
85.952
39.6367
12.2179
265.452
159.272
85.2172
39.6117
11.6495
731.295
409.55
216.295
99.3282
30.3275
76.5937
47.8968
26.3301
12.4232
3.60912
9.33514
5.99514
3.3683
1.61433
0.469953
89.8528
55.9176
30.6585
14.4449
4.20793
-57424.1
-91668.1
-47760.2
-74095.3
-47070
-94287.9
-56317.6
-119693
-36272.3
-24315.8
-40569.1
-25322.1
-31014.5
-18839.3
-38158.4
-20100.9
-51707.3
-42297.8
-73975.6
-57642.1
-44253.4
-38332.6
-61408.3
-49812.1
-35218.6
-36246.5
-28508.8
-27652.3
-36029.5
-33462.3
-75410.6
-20551.7
-29744.6
-11033.4
-84938.3
-23581.2
-24983.9
-9554.52
-60801.7
-19019.8
-31691.9
-12257.4
-57848.6
-17743.2
-30745
-12994.2
-38292.8
-14396.1
-29197.3
-13683.8
-33262.9
-12591.1
-29442.2
-15920.5
-25941.2
-11097
-33170.8
-12437.4
-11559.8
-4295.64
-19440.4
-13042.2
-17346.6
-10196.2
-14609.9
-10734.3
-13350.5
-8250.86
-19841.9
-12015.9
-23190
-15661
-12046.3
-7018.96
-6543.3
-4291.67
-9296.4
-5744.43
-5047.21
-3626.58
-13655.3
-7881.41
-7516.24
-4305.34
-19547
-11242.2
-14704.6
-19735.8
-24965.1
-19374.5
-20668.9
-32618.1
-13164
-6613.42
-8834.17
-11430.2
-7000.99
-3127.5
-4093.11
-4302.93
-31669.2
-40502.1
-19311.1
-50693.8
-32456.2
-37764.2
-22316.8
-51683.1
-31752
-32553
-26719.1
-48784.3
-15382.5
-10922.7
-19858.7
-25550.6
-30055.8
-13689.3
-19192.2
-26720.8
-34862.7
-59563.2
-9734.59
-12657.9
-16635.3
-24054
-43469.9
-38093.9
-24131.5
-52080.7
-35545.8
-34336.5
-22953
-51039.9
-35200
-28626.2
-20680.5
-46972.7
-34358
-10384.6
-7109.46
-14316.1
-10365.6
-19206.1
-14531.6
-25299.1
-19951.9
-42725.9
-33802.3
-8526.96
-6728.44
-11998.6
-10553.1
-16794.8
-15428.5
-24214.9
-22092.6
-37932.7
-32920.2
-10041.2
-6124.33
-6958.45
-5730.17
-8503.24
-7473.4
-6109.25
-6425.42
-8640.23
-7129.83
-12847.1
-8043.06
-2755.29
-3668.6
-1110.84
-1223.25
-3274.7
-4199.29
-1146.34
-1362.58
-3056.72
-4351.08
-1166.32
-1419.48
-11078.3
-7432.38
-15428.6
-7079.09
-17493.1
-10542.3
-24776.1
-12736.2
-4575.85
-4019.41
-8042.14
-3329.44
-3268.32
-2685.8
-4349.87
-2515.41
-13711.6
-4541.68
-19591.3
-6398.94
-13658.1
-4658.69
-19702.3
-6708.09
-12765.3
-4251.72
-19806
-6992.32
-3982.54
-1259.95
-6400.18
-2180.12
-9285.04
-3266.3
-13200.1
-4535.49
-20313.2
-7314.68
-4233.42
-1424.81
-6877.21
-2712.95
-10215.5
-3963.98
-14788.2
-5536.06
-20779.4
-7252.33
-9809.68
-8267.91
-8248.56
-7447.56
-18343.3
-12842.2
-15975.5
-12261.1
-5532.89
-3275.83
-2451.18
-1301.49
-5351.18
-3647.46
-2476.99
-1813.73
-4500.88
-5860.92
-5011.49
-5957.43
-4180.92
-3330.12
-6234.03
-2287.96
-12534.2
-4443.74
716.407
-1161.24
-2759.54
-1772.96
-1145.3
-933.153
-1617.5
-533.774
-678.013
-209.173
-1792.32
-586.614
-1014.24
-294.26
-2218.64
-700.211
-1831.29
-545.826
-1563.49
-427.959
-600.573
-126.045
-6176.99
-4992.49
-5368.8
-3673.07
-9842.67
-8010.57
-8814.11
-5911.76
-3044.84
-2113.3
-3752.84
-2875.21
-3717.3
-2485.93
-2093.85
-1609.74
-6084.63
-4020.59
-3431.65
-2582.48
-2064.22
-1432.11
-1103.69
-952.548
-1449.23
-436.091
-1120.88
-354.233
-1771.59
-529.193
-1509.93
-482.75
-934.1
-304.807
-743.673
-216.221
-403.525
-112.526
-472.464
-102.85
-1874.44
-1686.91
-672.039
-626.602
-1981.54
-1828.65
-679.501
-625.89
-2291.63
-1985.06
-718.493
-623.399
-4290.98
-7203.56
-2822.08
-1504.07
-470.332
-9271.13
-5727.89
-3776.53
-2115.56
-678.932
-7006.81
-4546.22
-2677.44
-1460.84
-439.54
-1302.44
-836.581
-514.852
-420.79
-1422.86
-919.197
-530.033
-435.428
-1642.43
-1124.34
-546.665
-459.224
-7457.14
-4802.41
-5162.97
-3215.89
-3185.88
-1998.54
-1744.76
-1117.71
-526.643
-423.549
-5386.98
-4077.53
-3407.34
-2515.67
-1992.11
-1435.21
-1073.42
-766.725
-316.217
-305.518
-2803.52
-1535.67
-2026.54
-924.665
-5103.21
-3142.09
-3818.62
-2234.53
-1106.23
-486.945
-1514.58
-827.133
-1914.59
-720.882
-613.171
-227.269
-2850.13
-1516.76
-922.823
-490.494
-1130.29
-390.157
-361.741
-121.213
-500.258
-275.962
-155.92
-142.348
-716.152
-419.268
-198.295
-179.342
-549.839
-211.536
-122.261
-98.4797
-140.294
-47.9295
75.7279
11.744
-452.751
-143.223
-234.32
-44.5321
-521.363
-172.679
-248.624
-49.513
-626.086
-201.893
-252.743
-47.4355
-2525.68
-769.095
-1689.47
-517.891
-1134.32
-365.13
-604.006
-184.11
-229.67
-47.4428
-2449.48
-701.695
-1438.11
-373.126
-812.984
-205.52
-422.201
-100.153
-200.752
-39.4623
-119.404
-21.8503
-3.08176
-0.319438
-49.3211
-9.10402
-1.36804
-0.172857
-126.615
-23.0891
-3.39934
-0.430094
-58.5764
-10.4992
-2.16864
-0.432882
-139.522
-24.8582
-4.34599
-0.756226
-100.178
-16.6152
-1.75556
-0.108452
-51.2898
-7.77156
0.736591
0.443294
-13.3004
-1.2489
0.54932
0.174133
-103.921
-18.6164
-2.15352
0.0241534
-69.3977
-11.9882
-2.16691
-0.24297
-129.476
-23.2626
-3.83506
-0.514846
-94.3393
-16.2678
-3.01066
-0.30383
-69.9127
-12.2242
-1.38871
-0.0383967
-44.2489
-7.6443
-1.42502
-0.203154
-26.0596
-4.03595
-0.315968
-0.0153832
-15.7618
-2.53218
-0.449137
-0.0792177
-147.092
-26.5944
-3.89811
-0.412045
-137.544
-24.2415
-4.65077
-0.620674
-145.427
-26.119
-3.78973
-0.379464
-134.1
-23.4685
-4.57471
-0.593542
-141.516
-25.0375
-4.29513
-0.583657
-127.519
-22.042
-4.67194
-0.661777
-104.571
-18.7126
-3.81704
-0.771062
-134.04
-23.0497
-5.49628
-0.887012
-88.4909
-15.1962
-3.14204
-0.391962
-98.1308
-16.091
-3.53117
-0.573704
-36.9501
-5.68756
-1.05542
-0.20932
-98.5379
-16.0357
-3.50424
-0.556726
-37.5145
-5.72948
-1.08064
-0.216336
-95.3595
-15.3596
-3.50374
-0.555289
-36.0774
-5.42449
-1.03031
-0.211085
-85.0116
-13.8494
-3.486
-0.547644
-32.9119
-4.99744
-1.05341
-0.210049
-73.7018
-12.1443
-3.09943
-0.489648
-25.557
-3.94477
-0.978842
-0.191227
-47.5826
-7.71487
-1.47971
-0.222954
-17.5437
-2.69462
-0.530215
-0.0986961
-61.0126
-9.9373
-2.17949
-0.341888
-19.8849
-3.03772
-0.712513
-0.141514
-31.0396
-4.91088
-0.872248
-0.141041
-12.1709
-1.8543
-0.297601
-0.0568622
-11.4107
-1.63009
-0.290278
-0.0462472
-4.5556
-0.589652
-0.0779707
-0.0120551
-0.046026
-0.00601288
-0.000740006
-8.86189e-05
-1.16069e-05
-0.0207538
-0.00267297
-0.000328902
-3.95527e-05
-5.21256e-06
-0.0514019
-0.00620355
-0.000740272
-8.83969e-05
-1.17183e-05
-0.0277323
-0.00299637
-0.00035531
-4.33848e-05
-5.90983e-06
-0.0507749
-0.0055662
-0.000656073
-7.8777e-05
-1.04719e-05
-0.0213246
-0.00322395
-0.000439713
-5.64362e-05
-7.59822e-06
-0.000471944
-0.000934135
-0.000110956
-4.8282e-06
1.7583e-06
0.0177014
0.00291637
0.000526593
9.59802e-05
1.95145e-05
-0.0257554
-0.00351288
-0.000428292
-4.92664e-05
-5.77706e-06
-0.0143855
-0.00175049
-0.000215321
-2.5099e-05
-2.83673e-06
-0.0428045
-0.00469378
-0.000550347
-6.61594e-05
-8.78978e-06
-0.00673373
-0.00128399
-0.000218696
-3.36384e-05
-5.3725e-06
-0.0171861
-0.00218381
-0.000216721
-1.4479e-05
6.93076e-07
-0.00779482
-0.00056485
-1.17046e-05
8.29333e-06
3.19037e-06
0.00722896
0.00197259
0.000414199
7.92362e-05
1.63817e-05
0.00318498
0.00137603
0.000321693
6.37491e-05
1.33593e-05
-0.0472324
-0.00578719
-0.000696644
-8.26544e-05
-1.07661e-05
-0.021734
-0.00242702
-0.00028336
-3.33279e-05
-4.33567e-06
-0.0486535
-0.00596803
-0.000713174
-8.4816e-05
-1.11988e-05
-0.0221817
-0.00251031
-0.000294354
-3.48982e-05
-4.61517e-06
-0.0474755
-0.0051708
-0.00059724
-7.10966e-05
-9.51534e-06
-0.0219871
-0.00236533
-0.000282033
-3.52912e-05
-5.02528e-06
-0.0350782
-0.00382002
-0.000478183
-6.25608e-05
-9.20957e-06
-0.0222617
-0.00234858
-0.0002996
-4.03891e-05
-6.16101e-06
-0.00375695
-0.00122049
-0.000241547
-4.09419e-05
-7.17366e-06
-3391.9
-8415.41
-3482.9
-8349.04
-3743.25
-8153.38
-3792.4
-7884.95
-3179.18
-7420.86
-495.407
-2269.7
-1431.14
-4154.5
-123.455
-1057.81
-60.5416
-408.423
-41811.6
-20509.8
-14396.6
-11842.8
-10382.6
-12182.5
-6859.73
-4982.07
-4025.82
-3421.86
-41196.7
-20186.6
-14194.6
-11677.6
-10249.4
-12316.7
-7148.09
-5059.83
-4100.48
-3551.97
-39204.8
-19246.5
-13544.1
-11143.2
-9777.93
-11842.5
-6871.7
-4870.8
-3951.35
-3425.47
-36066.5
-17735.6
-12491.9
-10274.9
-9009.66
-11239.6
-6481.08
-4572.63
-3691.07
-3181.68
-30919.9
-15215.3
-10729
-8827.05
-7739.13
-10372.6
-5939.69
-4182.98
-3371.44
-2900.39
-16051.2
-8157.36
-5766.89
-4733.8
-4140.06
-5132.21
-2973.22
-2099.69
-1693.16
-1456.8
-22935.5
-11529.8
-8139.32
-6685
-5853.78
-7475.64
-4333.56
-3076.02
-2491.1
-2151.01
-9679.56
-4955.46
-3508.48
-2881.37
-2519.13
-2956.42
-1739.36
-1228.86
-990.394
-855.973
-3357.28
-1711.78
-1213.43
-998.056
-873.481
-1101.43
-582.217
-401.736
-323.388
-274.18
-1584.44
-3632.6
-11736.9
-1881.79
-10797.2
-5012.48
-10202.6
-5149.08
-20999.2
-11532.9
-23721.9
-12766
-0.0195899
-0.0709741
-0.152465
-0.225068
0.0731793
2.65452
-0.0651201
-0.25015
-0.601752
-1.15013
-1.41655
0.840346
-0.00800688
-0.00491597
-0.0283709
-0.0204805
-0.0473515
-0.0491629
0.0416602
-0.0476441
0.456137
0.021064
2.09081
0.620132
15.4995
55.212
158.096
124.48
73.5814
9.1913
11.8022
43.0627
103.851
159.052
138.945
53.1213
-0.0153962
-0.0108361
-0.00664959
-0.0034227
-0.00103474
-0.0555597
-0.0389155
-0.0237601
-0.0121772
-0.00367207
-0.118518
-0.0823136
-0.0498133
-0.025336
-0.00760568
-0.173316
-0.119087
-0.0712964
-0.035939
-0.0107325
0.0558753
0.0376386
0.0219131
0.0107427
0.00314854
1.99003
1.3246
0.767672
0.376552
0.110708
-0.0508209
-0.035456
-0.0215515
-0.0110002
-0.00330851
-0.194308
-0.134798
-0.0814561
-0.0413703
-0.0124068
-0.463806
-0.31877
-0.190768
-0.0960896
-0.0286772
-0.878051
-0.596756
-0.353088
-0.176161
-0.0522861
-1.06917
-0.717383
-0.419167
-0.207002
-0.0610946
0.628683
0.417039
0.240749
0.117688
0.0345316
-0.00632671
-0.00448489
-0.00277427
-0.00143825
-0.000436627
-0.00390629
-0.00278914
-0.0017392
-0.00090815
-0.000276912
-0.0223254
-0.0157462
-0.00968827
-0.00499951
-0.00151359
-0.0161998
-0.0114996
-0.00712486
-0.00369927
-0.00112411
-0.0370701
-0.0259873
-0.0158881
-0.00815425
-0.0024604
-0.0386539
-0.0272281
-0.0167264
-0.00861822
-0.00260663
0.0314558
0.0210196
0.0121784
0.00595292
0.00174532
-0.037624
-0.0266252
-0.0164222
-0.0084858
-0.00257004
0.345904
0.233165
0.13676
0.0677147
0.0200093
0.0139797
0.00783698
0.00364461
0.00140621
0.000348357
1.56855
1.04534
0.606684
0.29793
0.0876502
0.463464
0.30746
0.1776
0.0868609
0.0254952
11.3862
7.42524
4.22567
2.04442
0.597273
39.5125
25.1447
14.0203
6.68539
1.94401
108.856
67.1217
36.548
17.1668
4.99311
82.2189
49.0282
26.3538
12.3996
3.6066
59.8449
37.9291
20.687
9.75939
2.48331
14.627
10.3581
5.90539
2.85204
0.601147
8.67242
5.65246
3.21404
1.55382
0.453676
31.0713
19.8976
11.1468
5.33201
1.5504
73.3351
46.0675
25.4238
12.0426
3.49331
110.027
67.9275
37.0548
17.4419
5.05772
97.5596
60.4821
32.9764
15.5015
4.44707
37.9809
23.6993
12.9654
6.11082
1.74246
0.0193828
0.0706307
0.151988
0.225392
-0.0663247
-2.61063
0.0643951
0.248631
0.598339
1.1436
1.40918
-0.828814
0.00794724
0.00490651
0.0283323
0.0205728
0.0477411
0.0499997
-0.0379989
0.0513084
-0.437258
-0.0386091
-1.99482
-0.587794
-15.3138
-54.6497
-156.574
-125.481
-79.844
-17.791
-11.71
-42.7729
-103.327
-159.135
-141.054
-56.6514
0.015248
0.0107473
0.00660773
0.00340802
0.00103173
0.0553285
0.0387922
0.0237155
0.0121706
0.00367343
0.11826
0.0822473
0.0498596
0.0254043
0.00763528
0.173904
0.119813
0.0719687
0.0363968
0.010893
-0.0496607
-0.0325521
-0.0183062
-0.00865778
-0.00247247
-1.95452
-1.299
-0.751661
-0.368194
-0.108139
0.050298
0.035137
0.0213952
0.0109409
0.00329497
0.193235
0.134164
0.0811621
0.0412689
0.0123863
0.461453
0.317437
0.190196
0.0959224
0.0286522
0.873678
0.594412
0.352192
0.175974
0.0522839
1.06469
0.715435
0.418837
0.207257
0.061255
-0.618778
-0.409396
-0.235629
-0.114861
-0.0336377
0.00628618
0.00446298
0.00276622
0.00143704
0.000436873
0.00390267
0.0027906
0.00174334
0.000912034
0.000278449
0.0223144
0.0157581
0.00971086
0.00501914
0.00152114
0.0162876
0.0115769
0.00718431
0.00373616
0.00113653
0.0374338
0.0262992
0.0161215
0.00829556
0.00250735
0.0393656
0.0277824
0.017107
0.00883482
0.00267625
-0.0284857
-0.0188439
-0.0107825
-0.00520499
-0.00151337
0.0406156
0.0288377
0.0178594
0.00926539
0.00281377
-0.33086
-0.222417
-0.130061
-0.0642202
-0.0189422
-0.0269296
-0.0162268
-0.00831169
-0.0035893
-0.00096659
-1.49297
-0.99233
-0.57434
-0.281382
-0.0826437
-0.43749
-0.288811
-0.165942
-0.080775
-0.0236345
-11.2467
-7.33275
-4.17298
-2.01935
-0.590094
-39.1042
-24.8844
-13.8787
-6.62132
-1.92637
-107.723
-66.3661
-36.114
-16.96
-4.93416
-82.3343
-48.6697
-25.8882
-12.0636
-3.48421
-63.621
-39.8406
-21.4176
-9.93509
-2.49922
-20.2898
-13.5805
-7.41305
-3.40628
-0.72837
-8.60329
-5.60717
-3.18873
-1.54205
-0.450347
-30.8578
-19.7596
-11.0709
-5.29741
-1.54083
-72.9309
-45.7884
-25.2583
-11.9614
-3.46953
-109.975
-67.8021
-36.9268
-17.3551
-5.02687
-98.9152
-61.2108
-33.2853
-15.5966
-4.46311
-40.3784
-25.1038
-13.6406
-6.36898
-1.805
-811.887
-299.464
-25.3552
-1.37174
-1.77146
-1.41278
-9.34455
-5551.32
-1545.17
-1322.24
-701.93
-76.7003
-565.673
-37.0096
35.1767
-7.4626
-2975.6
-1016.06
-251.513
-147.485
-441.489
-190.908
-61.7662
-78.1174
0.780788
-13.0767
-82.9998
-61.9966
-3258.1
-858.263
-1553.54
-486.215
-395.29
-1190.75
-106.587
-10.6346
-123.473
-392.606
-202.027
-107.181
-52.8923
-20.2334
-170.244
-94.4029
-47.8508
-21.6334
-6.6267
-18.3113
-11.748
-6.59412
-3.15903
-0.920097
-1.07774
-0.747303
-0.447107
-0.224151
-0.0662281
-1.29254
-0.834575
-0.468937
-0.223928
-0.0646085
-1.01933
-0.650746
-0.36207
-0.171707
-0.0495128
-6.81933
-4.42724
-2.51215
-1.21337
-0.354773
-2866.41
-1601.01
-840.782
-405.859
-177.009
-866.398
-459.275
-245.287
-115.693
-40.1242
-751.782
-421.857
-222.436
-103.234
-34.6254
-391.425
-203.226
-107.248
-50.038
-15.4213
-52.9995
-32.857
-18.0123
-8.51992
-2.51252
-362.133
-214.273
-112.741
-51.7633
-15.6101
-24.8721
-15.1202
-8.18089
-3.83391
-1.12312
23.766
14.2647
7.51301
3.40556
0.950351
-4.59594
-2.54437
-1.26419
-0.555066
-0.15908
-1507.39
-847.258
-449.808
-217.26
-93.1412
-579.523
-324.252
-172.01
-79.9334
-26.297
-170.295
-104.249
-56.651
-26.6458
-7.92164
-100.288
-61.5313
-33.4549
-15.7142
-4.63238
-288.349
-172.526
-92.1972
-42.8286
-12.8262
-132.539
-82.1711
-44.8618
-21.0694
-6.10539
-42.2883
-26.0016
-14.1334
-6.62951
-1.93532
-55.3843
-34.9692
-19.3796
-9.20126
-2.67694
0.843012
0.677877
0.430124
0.216875
0.0596352
-9.33265
-5.91722
-3.28808
-1.56366
-0.454379
-57.7118
-35.9121
-19.7074
-9.30776
-2.72172
-43.7537
-27.556
-15.256
-7.24443
-2.11357
-1575.76
-787.015
-419.218
-200.152
-83.0813
-489.724
-271.296
-139.09
-63.5372
-19.9168
-829.171
-464.47
-238.306
-108.465
-34.9815
-285.723
-162.001
-83.1117
-38.0457
-11.7061
-260.012
-155.484
-82.9808
-38.5323
-11.3417
-704.608
-392.104
-206.538
-94.8866
-29.1446
-74.691
-46.7042
-25.6895
-12.1355
-3.53077
-7.60197
-4.8243
-2.6805
-1.27377
-0.369444
-85.4294
-52.9147
-28.9055
-13.5946
-3.96278
-2.43999
-8.40673
-18.7132
-36.5455
-64.9343
-107.678
-41170.9
-36122.9
-31505.8
-36387.7
-29225.9
-22076.3
-23794.1
-16718.4
-39397.6
-37068.1
-35961.2
-35976
-31085.5
-25628.8
-34043.3
-33926.2
-29997.8
-25006.9
-28701.3
-24446.1
-19535.1
-19522.8
-14378.6
-35295.1
-34139.7
-32134.2
-31605.3
-27099.9
-23967.5
-28088
-26128.7
-23538.5
-18884.5
-21196.7
-19625
-15910.5
-15338.7
-11837
-28898.6
-29485.6
-26406.6
-26937.5
-22188.7
-19433.6
-23357
-17237.3
-15829.4
-12059.5
-13227.7
-13499
-11286
-10183.8
-8207.27
-20387.4
-22205.4
-18752.2
-20403.4
-16037.2
-13787.9
-17361
-10215.9
-9491.44
-6954.02
-7530.3
-8220.23
-6913.17
-6004.17
-4932.86
-12622.8
-13794.9
-11666.5
-12676.6
-10110.5
-8638.36
-10833.5
-3472.41
-3247.38
-2331.24
-2506.86
-2847.6
-2450.64
-2041.42
-1712.2
-4391.07
-4946.14
-4053.9
-4409.8
-3567.76
-3072.89
-3835.93
-11557.3
-10910.2
-19420.3
-21501.5
-9834.53
-8058.85
-16123.1
-11872.3
-6711.22
-3705.42
-6614.99
-3904.32
-6284.33
-5963.87
-4254.13
-10902.2
-9966.05
-16707.2
-18744.1
-8710.33
-7254.17
-13677.1
-10503.1
-6456.87
-2914.91
-6244.82
-3135.5
-5403.46
-5181.6
-3538.2
-8990.11
-8204.02
-13105.2
-14560.7
-7154.1
-5981.21
-10895
-8500.49
-4854.26
-2349.74
-4697.66
-2573.43
-4021.42
-3934.54
-2830.34
-6063.96
-5552.27
-8508.56
-9326.51
-4850.33
-4051.94
-7234.71
-5785.3
-3513.05
-1625.39
-3358.96
-1761.13
-2874.57
-2752.52
-1925.18
-3492.98
-3214.75
-4862.79
-5279.66
-2786.24
-2288.26
-4204.87
-3393.05
-2013.46
-927.45
-1930.62
-1021.38
-1659.89
-1564.26
-1115.03
-1155.66
-1067.22
-1613.17
-1741.64
-927.171
-763.436
-1410.18
-1155.01
-640.347
-308.11
-627.97
-336.652
-553.742
-518.096
-368.71
15396.3
48575.8
12617.4
49780.9
9141.56
49056.1
12709.4
68053.6
15127.6
91651.1
15914.5
71476
16205.6
62179.5
17059.2
56366.7
10083.1
6295.93
27033.3
15936.4
9291.52
4584.07
26771.5
12636
12702.9
10327.3
39336.4
30945.7
9668.11
8106.66
38573
31277.1
22130.8
9655.75
18595.3
8429.6
9834.61
21929.4
65001.6
17168.5
23794.3
7560.21
76255.3
20225.7
20151.4
6426.25
50933.2
15623.8
25761.7
8932.58
48109.2
15026.7
18611.3
9230.51
24118
9831.74
19974.1
10779.3
23458.8
9482.26
23157.1
13890.8
19302.1
9041.98
27636.3
10643
9451.41
3546.79
22184.2
14357.3
13883.6
8902.82
18501.4
13417.1
10699.1
7298.71
16019.2
10680.9
23186.1
15406.5
9088.42
5822.2
4271.18
3262.92
6887.97
4743.71
3113.15
2720.76
10597.7
6749.95
5244.48
3359.78
16537.8
10149.6
13640.6
19238.5
22764.4
18306.1
19665.2
31952.7
10819.2
5793.15
7996.27
11082.3
5277.62
2505.59
3412.78
4033.15
25292.2
43073
17000.3
50041.4
28314.9
40418
20501.6
51261.5
29966.7
34230.4
25447.8
48546
21338
18456.3
21551.5
23456.9
28623.4
15897.2
21317.3
27779.6
34863.8
58949.5
13977.5
15142.4
17017.1
23296.6
42756
45871.8
33548
54084.2
41153.4
40402
30650.4
52494.1
39764.1
32664.6
26411.5
47872.9
37559.9
10241.4
6316.37
14770.4
10665.8
20841.8
16378.8
27715.9
22861.6
43214.4
35462.8
9430.34
6773.82
13079.8
11342.1
17823.9
16760.8
24868.9
23525
37797.3
33972.8
11080.1
6396.72
6876.35
5669.59
10110.8
8059.79
6321.24
6667.17
8317.04
6877.06
13136.2
8011.43
2345.86
3466.93
654.066
996.589
3002.33
4162.08
769.793
1223.8
2610.82
4085.41
715.267
1180.6
10692.7
7142.28
15120.9
6860.79
17281.8
10319.8
24409.4
12533.1
4205.09
3781.51
7810.17
3173.24
2917.41
2486.02
4154.3
2393.87
21389.8
10215.3
2828
24526.8
11169.9
3118.9
20016.5
9775.31
2853.48
23546.4
10828.3
2995.08
17168.3
8262.79
2297.23
22138.6
10273
2825.82
3508.81
1687.68
460.389
6860.39
3497.28
982.588
11057.8
5616.22
1577.94
15534.5
7615.87
2090.74
21388.3
10054
2778.23
4167.05
2001.5
596.175
7475.86
4157.34
1297.75
11305.1
6245.89
1889.09
15951.3
8428.03
2454.18
21597.6
10317.3
2928.18
773.539
1948.32
3756.81
4232.47
3864.83
3208.03
8945.27
7163.49
512.294
437.037
546.414
455.459
421.333
715.668
721.532
975.045
2516.86
1193.05
3019.32
1664.23
1210.53
2206.42
4025.1
422.409
9199.07
1908.43
-2219.05
-376.917
1282.64
407.926
315.803
-122.815
3322.72
901.064
849.753
322.749
3533.26
945.702
1170.26
415.086
3784.69
1033.2
1806.62
648.553
1288.92
427.746
107.543
49.3243
9392.7
6902.84
4561.29
3562.38
13661.7
10781
7137.34
5436.35
2780.62
2171.31
5949.82
3909.05
2619.35
2111.42
1044.97
1188.97
4356.5
3341.9
1933.06
1910.32
1448.32
1274.95
443.268
737.121
1570.33
510.971
1207.06
393.897
2610.12
715.962
1931.48
589.014
745.579
300.54
696.817
217.146
114.103
70.4009
381.095
87.5188
3447.9
1415.59
986.174
621.515
3617.23
1600.45
996.111
636.379
4232.6
2047.76
1059.06
692.805
9654.36
14051
6344.66
2772.56
724.073
11316.7
7674.78
5030.38
2741.02
809.19
11132.8
7279.15
4084.41
2017.39
567.526
594.142
237.411
335.11
172.531
750.409
298.491
379.402
198.887
1091.47
466.683
470.789
256.262
7116.88
3657.81
4743.25
2210.28
2537.6
1264.64
1506.53
742.292
520.666
315.457
6048.69
3802.98
3862.67
2258.09
2257.5
1292.48
1205.17
702.96
386.885
292.396
3711.87
1791.91
2261.22
1074.46
6547.14
3535.86
4129.18
2458.15
1251.42
577.529
1975.98
971.729
1868.97
741.556
456.156
189.574
2719.8
1526.73
659.012
415.797
1124.03
408.252
283.105
104.922
569.262
319.775
178.066
158.776
900.565
486.313
249.127
204.08
556.414
223.048
126.792
103.571
111.83
43.2642
-81.701
-12.8746
85.4653
23.0131
4.78399
69.6916
15.1215
2.99532
113.988
31.6148
6.96254
82.8541
18.6351
3.78498
176.094
50.3802
10.9962
109.998
25.1758
5.0367
1734.29
743.617
192.642
912.962
334.339
84.5854
517.41
170.961
41.5369
287.736
83.831
18.0873
140.968
32.1532
5.96723
2098.67
827.984
219.785
1127.54
378.299
90.239
616.384
192.573
42.9926
324.768
94.3748
19.6506
158.678
35.0791