/*--------------------------------*- C++ -*----------------------------------*\
  =========                 |
  \\      /  F ield         | OpenFOAM: The Open Source CFD Toolbox
   \\    /   O peration     | Website:  https://openfoam.org
    \\  /    A nd           | Version:  11
     \\/     M anipulation  |
\*---------------------------------------------------------------------------*/
FoamFile
{
    format      ascii;
    class       volScalarField;
    location    "0.2";
    object      gradTx;
}
// * * * * * * * * * * * * * * * * * * * * * * * * * * * * * * * * * * * * * //

dimensions      [0 -1 0 1 0 0 0];

internalField   nonuniform List<scalar> 
5712
(
-12449.7
-16451
-27705.5
-43083.7
-42948.6
-75643.5
-31009.1
-79596.7
-24430.5
-54366.2
-36606
-57842.1
-31787.5
-44707.3
-14404.9
-17415.9
-29783.9
-32737.1
-38189.9
-37403.5
-26507.6
-29337.7
-39897
-34084.6
-11274.4
-9464.9
-14419.9
-10792
-26508.4
-23019.2
-45827.1
-36133.1
-33944.6
-34347.3
-40799.1
-39054.5
-16110.8
-12728
-74967.7
-99082
-49981.3
-60865.5
-91687.4
-118701
-47976.8
-55418.3
-60218.5
-84152.3
-55227.6
-71635
-34945.5
-53710.7
-7240.21
-2564.7
-7834.06
-2953.64
-21546.8
-9268.29
-30018.6
-11693.5
-21821.7
-8946.83
-22620.5
-7904.32
-37743.1
-12977.2
-48622.7
-17596.7
-38581.1
-20870.8
-38181.2
-22715.3
-30523.2
-19078.3
-29646.5
-19697
-36071.2
-23508.1
-34820.5
-20656
-41427.6
-24879
-42511.8
-25162.2
-33364.6
-21048.7
-34581.9
-21063.5
-39793.1
-26217.4
-41597.5
-26987.2
-40326.3
-20694.9
-24305.5
-34476.1
-38997.3
-22525.9
-21442.9
-34211.9
-43538.9
-20522.5
-26870.5
-35005.3
-46119.1
-20969.4
-28672.4
-36185.6
-8909.91
-9269.35
-3215.17
-6683.21
-25149.8
-25331.5
-11068.9
-20487.5
-30533
-31151.3
-18529.1
-31628.9
-11568
873.872
-20875.6
-33706.5
-24019
2106.27
-3962.12
-17129.7
-34919.4
-35691.7
-11170.4
-17845
-21731.5
-25045.2
-44890.7
-6793.01
-4122.44
-4317.69
-3299.47
-18177.9
-11294.2
-13254.5
-9732.65
-21233.2
-13042.7
-18480.7
-12659.3
-3084.58
-3323.17
-8736.35
-7520.27
-18132.9
-12899.8
-24889.8
-16530.5
-25704.5
-16905.1
-7602.52
-4905.89
-13079.6
-6534.93
-17324.2
-8702.39
-21135
-10621.9
-31646
-15368.3
-13237.8
-3738.61
-13083.3
-7628.8
-10880.7
-8216.72
-12227.8
-10423.4
-15827.4
-9323.61
-16869.5
-4196.55
-12278.8
-10997.2
-12024.3
-11728.9
-12176.1
-12762.3
-12257.9
-13652.9
-14793.4
-13404
-14492.9
-14110
-23563.3
-11509
-36270.4
-12348
-22295.7
-5186.39
-33157.7
-6036.26
-23073.2
-14600.3
-37020.6
-13691
-21524.6
-16194.4
-34916.2
-16170.7
-2203.49
-1174.21
-528.443
-1804.46
-988.117
-479.584
-6129.47
-2611.51
-979.274
-5037.73
-2082.32
-782.263
-6317.87
-2574.7
-1192.66
-6334.59
-2381.08
-1058.15
-1766.9
-607.819
-284.45
-4450.71
-1356.45
-474.516
-6593.67
-2117.42
-673.064
-8213.72
-2933.52
-1127.55
-8652.04
-2856.67
-948.024
-4832.52
-1939.78
-689.362
-4894.69
-2018.63
-636.237
-6663.26
-2568.22
-743.205
-7895.89
-2941.32
-830.711
-11007.7
-3671.22
-888.394
-11176.2
-13497.3
-9805.46
-11791.8
-16575.1
-20762.1
-16625.7
-20923.2
426.549
-113.473
868.743
136.757
-1762.64
-1451.59
-523.011
-78.094
-1045.23
-2282.42
-8115.6
-10295.4
-3536.99
-2301.33
-12145.5
-13029
-23306.3
-26557.6
-51.015
3200.59
-7264.81
-7207.1
-5089.25
-3885.69
-531.166
-249.175
-436.332
-233.738
-1414.19
-191.384
-307.98
54.2396
-5734.08
-994.212
-4467.63
-939.981
-6102.13
-1343.42
-7450.4
-1555.04
-9804.2
-9006.35
-9457.7
-9092.37
-17792.5
-14796.3
-17950.4
-14545
-5203.96
-5346.85
-5687.93
-5148.56
-10280.1
-9133.91
-11249.6
-9158.86
-19592
-14805.7
-20761.6
-14789.5
-5379.79
-5359.81
-5767.9
-5379.17
-131.048
-255.277
-2620.02
-736.467
-86.2936
-178.665
-2337.38
-629.151
-332.196
-341.605
-2725
-806.227
-474.527
-373.282
-2708.51
-812.056
117.632
112.551
-79.1696
-9.25192
636.878
477.503
-27.5197
51.7188
-143.534
169.338
-406.938
-173.934
4342.5
6351.5
1631.78
946.423
94.262
6938.31
4865.16
1149.12
1289.92
183.695
-8349.34
-5402.71
-3361.62
-1983.98
-561.723
48.7331
23.2995
2.46825
5.24412
200.458
98.9341
20.9569
19.3745
200.444
157.284
-50.5412
-3.7586
1949.37
297.404
2229.22
766.099
410.053
131.74
374.243
164.928
-14.4712
-24.3615
-3279.12
-1402.68
-1543.11
-211.191
-880.694
-137.084
-505.876
-106.632
-126.252
-45.8434
-3331.06
-1744.22
-5225.37
-2257.69
-6177.13
-3566.35
-8507.93
-4462.08
-2866.77
-1193.51
-1746.51
-945.689
-5857.31
-2116.51
-6197.06
-2277.92
-9175.48
-4593.12
-9523.55
-4892.4
-3326.96
-1108.56
-3560.05
-1207.94
-1354.97
-611.449
-313.236
-258.464
-911.19
-512.417
-266.711
-235.551
-1510.81
-614.996
-331.561
-292.871
-1762.45
-652.356
-498.251
-301.494
6.95337
2.79413
1.77788
-0.0643334
0.655857
0.487425
31.8602
14.1355
7.49758
0.576194
2.54767
1.7313
65.9904
29.9995
13.7036
-12.2942
2.95995
2.45408
-58.9815
9.71433
-10.459
143.806
105.217
49.7507
47.3774
46.494
25.8493
61.2575
37.5991
19.017
-30.2758
-1.58804
0.959267
-1115.65
-368.425
-113.42
-142.718
-5.35289
13.1461
-88.7591
3.06534
11.5861
-49.1694
3.78435
7.19595
-50.9196
-3.19838
1.23383
-2.35489
-0.631758
-0.160193
-0.0200312
16.6556
2.96491
0.719168
0.169686
-13.3609
-3.07919
0.054254
0.138785
20.913
3.05496
1.80202
0.520128
-52.3276
-8.95362
-0.265064
0.321854
-28.1666
-4.8224
-0.077567
0.123709
-42.7221
-5.90476
-0.948433
-0.178057
-57.4916
-8.48379
-0.612649
0.0189057
-132.981
-22.0662
-3.60515
-0.553602
-140.079
-23.4969
-4.35845
-0.574735
-96.6482
-15.7264
-2.13272
-0.0576115
-114.573
-18.9057
-3.95946
-0.641945
-144.138
-23.6751
-3.06036
-0.299171
-155.712
-26.487
-4.6557
-0.552926
-148.755
-24.7188
-2.93457
-0.214545
-162.421
-28.0544
-4.94755
-0.627422
-2.4482
-0.708665
-0.124192
-0.010753
1.15275
-0.00425277
-0.113497
-0.0203699
-2.61711
-1.39441
-0.0523162
0.0590143
6.78445
0.556209
-0.161945
-0.0281027
-47.3642
-9.07383
-1.36813
-0.131985
-26.4884
-5.31829
-1.14472
-0.142837
-34.2152
-5.941
-0.75033
0.0336061
-14.5365
-2.97111
-1.08435
-0.190223
-95.2964
-15.8456
-3.40397
-0.443472
1.42995
0.228557
0.00424683
0.00656003
3.62086
0.741817
0.115617
0.018239
1.46055
0.132288
-0.164859
-0.0157893
9.74118
1.94543
0.258111
0.0383888
-6.91687
-1.32455
-0.556402
-0.0785847
12.6396
2.50658
0.303068
0.0389927
-22.9267
-3.61884
-1.04725
-0.148236
7.50733
1.94904
0.166693
0.009752
-51.101
-7.72677
-2.05598
-0.31379
-4.5252
0.389597
-0.154596
-0.0400602
-95.1636
-14.6962
-3.13339
-0.469166
-31.1609
-4.26311
-0.838676
-0.155145
-77.9543
-11.648
-2.73079
-0.439356
-22.0649
-2.44963
-0.552025
-0.103276
-106.209
-16.811
-3.45108
-0.531468
-36.991
-5.38413
-0.982622
-0.189732
-112.162
-18.081
-3.67545
-0.602475
-41.1223
-6.13115
-1.09563
-0.21513
0.00618802
0.00161816
0.000321592
5.7774e-05
1.11046e-05
0.0206375
0.00343786
0.00058612
9.8289e-05
1.81913e-05
0.013703
0.00305589
0.000637176
0.000119417
2.36016e-05
0.0335243
0.00580189
0.00107172
0.000189042
3.61119e-05
0.00925616
0.00264359
0.000649983
0.000130857
2.68437e-05
0.0259343
0.00602534
0.00122841
0.000226026
4.41871e-05
-0.00168712
0.00139513
0.000407387
8.50086e-05
1.77481e-05
-0.00733115
-0.00062161
2.70245e-05
2.19811e-05
6.47607e-06
-0.0140662
0.00108885
0.000499665
0.000113393
2.44209e-05
-0.0159216
-0.000604821
9.10249e-05
3.32778e-05
8.21327e-06
0.0142229
0.00434068
0.000936814
0.000174975
3.43688e-05
-0.0079843
0.000408724
0.000215512
4.89373e-05
1.04683e-05
-0.025635
-0.00168105
1.98296e-05
3.53163e-05
1.04367e-05
-0.0166542
-0.00115479
-1.29813e-05
1.65849e-05
5.32759e-06
-0.0309243
-0.00328902
-0.000280605
-1.37009e-05
1.8539e-06
-0.0214087
-0.00206438
-0.00017882
-1.14727e-05
1.92742e-07
0.00325812
0.00122019
0.000259587
4.70338e-05
8.97665e-06
0.00707607
0.00160761
0.00029307
4.8853e-05
8.80683e-06
0.0145518
0.00346544
0.000674146
0.000118829
2.24443e-05
0.0224105
0.00440444
0.000763591
0.000125152
2.24684e-05
0.00132286
0.00240222
0.000602837
0.000117891
2.36176e-05
0.0300677
0.00564842
0.000969712
0.00015984
2.90016e-05
0.0221945
0.00489379
0.000917507
0.00015985
3.01434e-05
0.027436
0.00457177
0.000753651
0.000122463
2.21072e-05
0.010833
0.00259411
0.000491806
8.5949e-05
1.62309e-05
-182.445
-512.54
-323.85
-1335.75
-290.612
-1968.96
123.355
-2213.09
399.963
-1569.06
-1526.46
-3779.28
-279.744
-1576.74
-1767.99
-4496.22
-2054.88
-4605.97
-2907.21
-1448.43
-1021.24
-839.903
-736.513
-937.026
-660.606
-383.897
-322.731
-271.341
-9026.33
-4473.79
-3156.82
-2595.66
-2276.36
-2510.4
-1539.47
-1117
-900.3
-773.421
-15454.9
-7659.72
-5406.24
-4445.68
-3896.83
-4373.57
-2661.83
-1897.79
-1529.81
-1313.91
-21424.9
-10610.5
-7492.93
-6162.59
-5402.69
-5913.66
-3597.86
-2560.54
-2061.5
-1770.79
-28031.2
-13905.1
-9834.96
-8101.86
-7119.77
-7569.99
-4650.09
-3328.01
-2697.17
-2334.22
-35867.6
-18184.6
-12897.4
-10629.2
-9352.99
-10364.9
-6171.59
-4398.99
-3573.56
-3092.45
-32469
-16340.3
-11565.9
-9526.32
-8381.77
-8880.98
-5374.54
-3835.22
-3118.64
-2706.9
-37582.3
-19143.9
-13590.3
-11201
-9850.94
-11131.2
-6578.82
-4689.4
-3814.89
-3303.61
-39297.3
-19945.3
-14169.1
-11680.3
-10271
-11503.3
-6844.92
-4892.87
-3935.55
-3414.11
-1598.44
-12318.8
-10817.8
-3302
1970.26
3323.93
7710.51
12282
860.717
9360.23
-6189.3
-869.695
630.797
4555.69
11203.3
17754
16627.1
22435.1
6883.06
9393.68
-7878.93
-4147.39
-100.47
-25.8727
-14.0637
-12.1687
-32.5245
-4507.19
-2311.95
-1849.09
-1158.83
-417.616
-303.74
-669.637
-179.67
-130.408
-112.616
-65.7445
-7096.02
-1784.32
-149.226
-319.727
-846.716
-368.444
-298.27
-142.955
-38.0229
-44.2713
-111.83
-125.121
-7434.05
-3264.6
-3076.01
-1489.86
-884.093
-1547.08
-183.322
-85.5991
-308.187
-4028.15
-2375.14
-1249.06
-603.809
-245.27
-2071.91
-1077.19
-558.646
-257.148
-83.8505
-71.3031
-45.0048
-24.8902
-11.7817
-3.41731
-18.9576
-12.3263
-6.99127
-3.37113
-0.983281
-10.3133
-6.69583
-3.78455
-1.81744
-0.528144
-9.08951
-6.02002
-3.46815
-1.69128
-0.495398
-23.6986
-15.2951
-8.60625
-4.12134
-1.197
-2077.37
-1056.12
-521.245
-249.171
-117.301
-833.893
-377.661
-156.038
-68.5325
-25.7642
-899.144
-430.118
-209.531
-93.4711
-31.6861
-424.177
-186.597
-77.7771
-31.0803
-9.82345
-144.042
-61.6297
-24.8527
-9.19896
-2.49817
-185.683
-102.502
-50.5527
-22.0189
-6.229
-358.436
-181.119
-86.9469
-37.6771
-11.0349
-91.8549
-44.0922
-20.0579
-8.23504
-2.26819
-84.8572
-49.1627
-25.1599
-11.2239
-3.16912
-70.239
-39.1625
-19.3392
-8.37199
-2.31871
-43.6308
-25.6637
-13.271
-5.95148
-1.67329
-3480.68
-1827.99
-943.466
-444.086
-195.427
-979.759
-525.568
-267.571
-120.6
-39.4307
-97.537
-57.1442
-29.663
-13.4105
-3.85815
-212.063
-126.469
-66.8262
-30.6492
-8.92618
-535.486
-310.861
-161.564
-73.445
-21.9786
-246.426
-148.255
-78.9921
-36.4596
-10.6305
-203.513
-124.452
-67.1554
-31.2525
-9.08354
-99.4644
-61.5711
-33.4719
-15.6421
-4.5211
-26.4736
-16.2954
-8.77135
-4.05606
-1.15867
-31.7233
-20.1338
-11.1567
-5.27982
-1.52616
-75.7706
-45.6374
-24.1828
-11.0775
-3.17256
-86.4986
-53.2
-28.7464
-13.371
-3.85904
-3776
-2131.77
-1125.09
-526.191
-213.938
-1716.84
-917.905
-476.898
-218.989
-73.541
-1704.71
-982.146
-496.733
-222.045
-71.6638
-901.454
-507.048
-264.495
-120.743
-37.3036
-571.147
-337.637
-177.812
-81.4579
-24.1966
-928.764
-521.33
-270.862
-123.058
-37.5505
-124.518
-75.579
-40.4608
-18.7107
-5.41745
-61.4371
-39.0743
-21.708
-10.2984
-2.98111
-210.875
-128.847
-69.3776
-32.2239
-9.33243
-11036.2
-22528.6
-22967.3
-64068.5
-20730.2
-77887.3
-11605.7
-27840.1
-22015.7
-17888.5
-38051.1
-32448.7
-19576.9
-16904.9
-38946.1
-29773.5
-8709.76
-6995.6
-17228
-12872.7
-19717.7
-15649.1
-53305.1
-42165.5
-31301.6
-22387.1
-35385.9
-21811.5
-3841.39
-9825.88
-78161.4
-100447
-48631.9
-60711.9
-94231.4
-119810
-46610.8
-55123.3
-62825.4
-85513.1
-53877.4
-71640.7
-38115.4
-55246.8
-5084.74
-1568.65
-8754.77
-3140.82
-16978
-8219.36
-33729.8
-12864.3
-10114.7
-5866.95
-19393
-6801.48
-37871.7
-12894
-49032.7
-17711
-26045.3
-15595.9
-33435.9
-20114.1
-19262.4
-13761.6
-25261.2
-17226.1
-32461.7
-21309.8
-25041.1
-16406.7
-39693.7
-23760
-42106
-24866.9
-31674.8
-19988.8
-34143.5
-20783.5
-38578.6
-25248.9
-41340.2
-26728.5
-38670.9
-20270.8
-22846
-34059.3
-33863.5
-21154.8
-18712.8
-33435.7
-43228.2
-20460.4
-26219.4
-34810.6
-46137.1
-20985.3
-28502.1
-36133.7
-3051.54
-2963.49
-1156.73
-4411.63
-12048.8
-12635.2
-8497.76
-17710.1
-10689.5
-11971
-14745.9
-27562.9
-15548.8
-8737.55
-18358.5
-25462.8
-21988.3
-5354.79
-8566.96
-13484.8
-25686.6
-33581.3
-14121.5
-17072.1
-18037.3
-20618
-43486.4
-3229.79
-2011.7
-2426.83
-2131.54
-10335.6
-6601.21
-10366.1
-7684.17
-6611.56
-3472.89
-14430
-9708.53
-6924.55
-5373.44
-8642.26
-6321.48
-12149.1
-7567.76
-16669.6
-10761.1
-23253.8
-15039
-9615.87
-5963.39
-12107
-5705.25
-14009.5
-6458.34
-17523.5
-8253.86
-30346.4
-14205.6
-11566.4
-3263.14
-11785.3
-7135.48
-10253.1
-8177.9
-11211.4
-10023.8
-14547
-8813.16
-14771.5
-3459.2
-11612.1
-10715.9
-11832.9
-11647.2
-11570.5
-12451.1
-12075.6
-13549
-14177.9
-13172.2
-14320.9
-14047.9
-22702.3
-11149
-35998.8
-12195.6
-20594.3
-4577.61
-32604.4
-5883.35
-22684.8
-14446.4
-36909.3
-13630.1
-21410.5
-16156.3
-34886.5
-16161.8
-1463.5
-1187.61
-1467.98
-1434.01
-4262.53
-2965.67
-4745.6
-3830.22
-1825.24
-1924.5
-5878.83
-4685.4
-3714.15
-2067.66
-4694.44
-2413.49
-4813.52
-2664.94
-6994.71
-4369.24
-10061.8
-5782.14
-5666.18
-2482.72
-4285.4
-1546.38
-5424.85
-1755.8
-6563.2
-1906.93
-9374.84
-1792.41
-6110.39
-8331.91
-5782.37
-10170.6
-11690.7
-12486.7
-14639.7
-18198.1
-813.74
-343.623
-388.161
-139.045
-2931.53
-1336.6
-2187.31
-490.569
-1172.31
-1687.83
-6887.11
-6355.29
-2114.93
-1811.43
-11061.9
-12668.6
-21831.9
-26104.9
215.32
3281.6
-6460.27
-6901.06
-4555.83
-3707.24
-468.956
-265.67
-458.116
-252.249
-1014.79
-246.487
-352.134
-3.52482
-4116.61
-968.927
-3927.62
-893.147
-5578.63
-1265.31
-7219.28
-1515.05
-5444.43
-6966
-7772.23
-7959.7
-10205.9
-10845.3
-14931.6
-12666.2
-4344.14
-4773.24
-3411.84
-4316.56
-9442.64
-8586.96
-10988
-9002.55
-18272.3
-13966.9
-20381.3
-14561.3
-4918.81
-5052.68
-5609.5
-5286.04
-115.799
-265.732
-2443.82
-721.774
-89.2895
-230.096
-2214.29
-645.228
-265.357
-334.337
-2604.23
-789.007
-432.485
-366.656
-2668.47
-805.277
-397.125
-322.287
-219.409
-154.614
-914.134
-704.852
-240.181
-154.536
-3455.2
-2613.05
-749.475
-571.378
-2623.19
-3798.94
-2265.95
141.145
-91.8367
-603.626
-1109.79
-2399.68
702.962
34.5885
-11779.1
-7537.05
-4581.57
-2392.89
-684.369
-228.546
-120.055
-106.517
-66.548
-527.25
-286.388
-135.13
-99.7805
-1858.66
-1111.03
-420.429
-299.069
-3002.31
-2772.96
-1581.53
-1646.45
-1981.42
-1360.49
-212.925
-214.822
-173.909
-172.398
-6211.62
-3213.59
-3712.36
-1656.92
-2091.63
-943.046
-1012.34
-444.531
-242.58
-138.457
-3664.26
-2189.17
-4947.79
-2260.2
-6341.29
-4071.52
-7925.45
-4379.95
-2776.76
-1217.04
-2015.94
-1213.83
-5599.07
-2058.32
-6106.61
-2249.35
-8737.62
-4454.75
-9381.72
-4836.45
-3204.32
-1089.18
-3513.02
-1195.44
-1346.21
-629.457
-328.698
-272.233
-1072.14
-643.122
-323.799
-283.272
-1471.85
-610.576
-331.676
-294.837
-1743.83
-647.568
-495.789
-300.886
-57.5713
-40.6062
-39.1308
-30.5304
-183.116
-142.872
-67.6269
-52.2869
-657.62
-412.903
-146.683
-55.5225
-2140.25
-1115.76
-1366.98
-631.518
-822.022
-415.852
-197.525
-116.702
-120.253
-46.8909
-2130.62
-821.512
-911.678
-333.134
-520.455
-200.857
-235.152
-84.1844
-101.427
-6.11117
-10.625
-2.21732
-0.458766
-0.0695728
4.5137
0.522501
0.299515
0.107254
-32.3036
-6.78678
-0.526869
0.0591424
0.240334
-1.39255
1.06995
0.416134
-73.4418
-13.4265
-0.914763
0.260474
-45.4242
-9.29877
-0.972166
-0.0383607
-48.0302
-7.89216
-1.41795
-0.269188
-58.2235
-9.11033
-0.776839
-0.0136223
-138.826
-24.2957
-4.1731
-0.686072
-142.552
-24.657
-4.6733
-0.63859
-114.868
-19.8302
-2.90319
-0.188995
-123.066
-21.0187
-4.43213
-0.725611
-145.673
-24.8705
-3.37515
-0.36267
-155.846
-27.0386
-4.83809
-0.594836
-148.808
-25.0953
-3.04279
-0.23687
-162.238
-28.2111
-5.0063
-0.641417
-11.2691
-2.25103
-0.374912
-0.045886
-7.70111
-1.45673
-0.389323
-0.0611434
-27.0392
-5.52756
-0.671031
-0.0238137
-17.3204
-3.38078
-0.879962
-0.133092
-76.5069
-13.9391
-2.0784
-0.227156
-60.6257
-10.6804
-2.08098
-0.277397
-73.2493
-12.333
-1.73895
-0.101152
-51.7687
-8.54811
-1.99619
-0.292158
-117.769
-19.6863
-4.08571
-0.514176
-4.95907
-0.876596
-0.181254
-0.0226176
-0.960483
-0.149834
-0.030631
-0.00773904
-16.499
-2.89868
-0.711505
-0.106442
-4.1159
-0.657135
-0.178404
-0.0376116
-35.888
-5.87051
-1.34072
-0.207855
-12.2768
-1.81842
-0.370785
-0.0737112
-57.9022
-9.07524
-1.93372
-0.280632
-24.5872
-3.44777
-0.630166
-0.11837
-76.332
-12.0091
-2.83792
-0.450757
-31.3139
-4.37289
-0.896057
-0.16423
-100.775
-16.259
-3.50613
-0.548966
-36.765
-5.61401
-1.10114
-0.206971
-93.2702
-14.8138
-3.36721
-0.562632
-36.293
-5.34973
-1.04889
-0.193626
-107.358
-17.4039
-3.62557
-0.572777
-38.4292
-5.85474
-1.08875
-0.212506
-112.165
-18.2106
-3.72182
-0.614477
-41.2514
-6.21861
-1.11976
-0.220978
-0.00189742
4.21856e-05
3.46594e-05
8.47432e-06
1.87214e-06
0.00808735
0.000962527
0.0001339
2.01766e-05
3.45813e-06
-0.00376965
-0.000444768
-2.3368e-06
9.34932e-06
2.9318e-06
0.00775815
0.000638026
0.000119473
2.31874e-05
4.57472e-06
-0.0112575
-0.00155596
-0.00011824
-1.47672e-06
1.94716e-06
-0.00781029
-0.000617827
7.48688e-06
1.31296e-05
3.57904e-06
-0.0173283
-0.00165558
-0.000158664
-1.49875e-05
-1.58117e-06
-0.0142609
-0.00203008
-0.000240407
-2.60587e-05
-2.94157e-06
-0.036794
-0.00310869
-0.000253199
-1.63491e-05
-1.50011e-07
-0.0248342
-0.00222165
-0.000196168
-1.60246e-05
-1.1092e-06
-0.0142198
-0.000979187
-1.32408e-05
1.20548e-05
3.63787e-06
-0.0182761
-0.00140805
-0.000102803
-5.13915e-06
3.33698e-07
-0.0379332
-0.00399264
-0.000397911
-3.72005e-05
-3.39971e-06
-0.0230926
-0.00238367
-0.000236754
-2.2507e-05
-2.1784e-06
-0.0357719
-0.00424303
-0.000457443
-4.49125e-05
-4.18197e-06
-0.0234049
-0.00245677
-0.000251755
-2.43772e-05
-2.30871e-06
-0.00326258
-5.28783e-05
3.16134e-05
8.43213e-06
1.83558e-06
0.000271574
0.000390046
8.4797e-05
1.44592e-05
2.5412e-06
-0.00200168
0.000253566
0.000103004
2.2346e-05
4.57351e-06
0.00485818
0.00127742
0.000228353
3.65256e-05
6.25461e-06
-0.0175444
-0.00127026
-5.22682e-05
6.87709e-06
2.98813e-06
0.00661688
0.00148923
0.000255269
4.08202e-05
7.07118e-06
-0.00284199
0.000374536
0.000127207
2.61295e-05
5.16269e-06
0.009223
0.00138285
0.000206956
3.11468e-05
5.20457e-06
-0.00325764
0.000125935
6.24867e-05
1.32084e-05
2.59784e-06
84.7267
-325.032
307.999
-885.936
476.788
-1420.95
791.868
-1725.13
832.809
-1247.97
-1424.22
-3700.23
-70.671
-1461.52
-1728.48
-4464.8
-2046.5
-4599.18
-2913.47
-1450.33
-1021.19
-839.614
-736.252
-903.095
-658.785
-382.885
-322.431
-271.212
-9056.67
-4481.58
-3157.91
-2595.77
-2276.43
-2427.39
-1528.87
-1115.68
-900.528
-773.982
-15507.5
-7672.26
-5408.5
-4446.45
-3897.48
-4272.66
-2648.82
-1896.12
-1529.87
-1314.33
-21483.6
-10623
-7494.76
-6162.97
-5403
-5822.2
-3585.61
-2559.05
-2061.46
-1770.89
-28092.4
-13917.1
-9836.96
-8102.53
-7120.35
-7507.21
-4641.02
-3326.89
-2697.16
-2334.34
-35899.2
-18190
-12898.2
-10629.5
-9353.16
-10348.6
-6169.44
-4398.82
-3573.6
-3092.38
-32517.8
-16349
-11567.2
-9526.7
-8382.13
-8846.68
-5369.31
-3834.66
-3118.62
-2706.98
-37598.4
-19146.5
-13590.6
-11201.1
-9850.95
-11125.7
-6578.17
-4689.24
-3814.87
-3303.61
-39303.4
-19946.5
-14169.4
-11680.6
-10271.3
-11502.6
-6845.06
-4893.01
-3935.66
-3414.22
-1430.94
-12089.6
-10103.5
-2870.12
-2050.92
-1067.2
-4597.65
-3144.56
-9951.15
-9646.24
-5001.54
-3750.43
-0.0351672
-0.111946
-0.389802
-1.29843
-4.17071
-12.9088
-0.040996
-0.185728
-0.731916
-2.47187
-7.37462
-19.5854
-0.0163778
-0.00554168
-0.0578407
-0.0261051
-0.219156
-0.120221
-0.783797
-0.505026
-2.51869
-1.60341
-8.34273
-4.65927
-36.3923
-92.0745
-216.533
-683.291
-1354.87
-1921.46
-45.9331
-94.6104
-171.839
-288.111
-453.052
-577.6
-0.0277297
-0.0195998
-0.0120851
-0.00624763
-0.00189384
-0.0875843
-0.0612994
-0.0373931
-0.0191483
-0.00577116
-0.302466
-0.209555
-0.126454
-0.0641477
-0.019225
-0.997561
-0.682991
-0.407112
-0.204362
-0.0608691
-3.1641
-2.13517
-1.25436
-0.622091
-0.18401
-9.63536
-6.38739
-3.68888
-1.8045
-0.529855
-0.032153
-0.0225741
-0.0138174
-0.00709695
-0.00214275
-0.144422
-0.100323
-0.0607081
-0.0308701
-0.00926439
-0.564385
-0.388091
-0.23236
-0.117081
-0.0349477
-1.88792
-1.28363
-0.759736
-0.379112
-0.112528
-5.57042
-3.73986
-2.18594
-1.07962
-0.318614
-14.6024
-9.66497
-5.57293
-2.72281
-0.798971
-0.0129817
-0.00923726
-0.00573786
-0.0029859
-0.000908737
-0.004405
-0.00314633
-0.00196264
-0.00102517
-0.000312687
-0.0454851
-0.0320419
-0.0196846
-0.0101432
-0.00306852
-0.0206021
-0.0145809
-0.00900345
-0.00466035
-0.00141355
-0.170912
-0.119156
-0.0723873
-0.0369351
-0.0111076
-0.0941359
-0.0659625
-0.0402882
-0.0206525
-0.00622744
-0.605299
-0.416971
-0.250115
-0.126224
-0.0377131
-0.391834
-0.271399
-0.163692
-0.0829864
-0.0248584
-1.92191
-1.30525
-0.771541
-0.384531
-0.114052
-1.23169
-0.842616
-0.501547
-0.25135
-0.0747736
-6.26524
-4.17823
-2.42546
-1.19086
-0.350289
-3.53167
-2.37712
-1.3912
-0.687228
-0.202769
-26.6069
-17.2673
-9.78218
-4.715
-1.37513
-65.5597
-41.5051
-23.0259
-10.9319
-3.17323
-149.057
-91.7687
-49.8229
-23.3158
-6.76714
-447.203
-266.179
-141.326
-65.2846
-19.2087
-825.587
-473.046
-246.512
-113.068
-34.4635
-1128.98
-636.645
-328.926
-150.493
-46.6289
-33.7179
-21.9593
-12.4776
-6.02827
-1.7595
-68.1378
-43.562
-24.3635
-11.636
-3.3813
-120.783
-75.5682
-41.5423
-19.6093
-5.68448
-195.919
-119.432
-64.4209
-30.0501
-8.7299
-293.052
-172.737
-91.286
-42.1417
-12.406
-362.149
-209.43
-109.419
-50.2504
-14.9282
-0.0350456
-0.111347
-0.387692
-1.29141
-4.14767
-12.827
-0.0408046
-0.184644
-0.727576
-2.45689
-7.32766
-19.4544
-0.0163247
-0.00552868
-0.0575786
-0.0261041
-0.2183
-0.120988
-0.78118
-0.512256
-2.51736
-1.68055
-8.32711
-4.92564
-36.1244
-91.3063
-214.464
-675.513
-1340.51
-1913.73
-45.6104
-93.9262
-170.569
-285.824
-449.645
-575.873
-0.0276415
-0.0195456
-0.0120583
-0.0062373
-0.00189143
-0.0871577
-0.0610451
-0.0372736
-0.0191062
-0.00576242
-0.301012
-0.208735
-0.126108
-0.0640508
-0.0192121
-0.99294
-0.680605
-0.406291
-0.204265
-0.0609046
-3.14986
-2.12869
-1.25291
-0.622586
-0.184406
-9.58688
-6.36699
-3.68578
-1.80738
-0.531609
-0.0320149
-0.0224898
-0.013776
-0.00708114
-0.0021391
-0.143651
-0.0998624
-0.0604902
-0.0307919
-0.00924769
-0.561351
-0.386329
-0.231564
-0.116818
-0.0348978
-1.87764
-1.27783
-0.757245
-0.37837
-0.112411
-5.53867
-3.72233
-2.17868
-1.07761
-0.318346
-14.5151
-9.61761
-5.55379
-2.71778
-0.798386
-0.0129435
-0.00921423
-0.00572685
-0.00298193
-0.000907884
-0.00439643
-0.00314197
-0.00196134
-0.00102525
-0.000312865
-0.0453046
-0.0319411
-0.0196435
-0.0101331
-0.00306774
-0.0206162
-0.014606
-0.00903082
-0.00468072
-0.00142099
-0.170379
-0.118919
-0.0723469
-0.0369687
-0.0111288
-0.0948388
-0.0665564
-0.0407283
-0.0209178
-0.00631549
-0.604011
-0.416784
-0.250527
-0.126699
-0.0379097
-0.398157
-0.276449
-0.167233
-0.08503
-0.0255212
-1.92464
-1.31042
-0.776981
-0.388434
-0.115463
-1.29474
-0.889066
-0.531555
-0.267555
-0.0798462
-6.26935
-4.19537
-2.44554
-1.20562
-0.35559
-3.7494
-2.53813
-1.49541
-0.743399
-0.220225
-26.4507
-17.2032
-9.773
-4.72416
-1.38053
-65.1222
-41.3298
-23.0023
-10.9573
-3.18793
-147.895
-91.2956
-49.742
-23.3658
-6.79954
-442.725
-264.114
-140.69
-65.2313
-19.2464
-816.649
-468.196
-244.375
-112.359
-34.32
-1123.98
-633.793
-327.575
-149.981
-46.5061
-33.5054
-21.8454
-12.432
-6.01636
-1.75813
-67.6943
-43.3279
-24.2712
-11.6124
-3.37873
-119.978
-75.1522
-41.3826
-19.5707
-5.68095
-194.488
-118.691
-64.1283
-29.9727
-8.72023
-290.844
-171.505
-90.7225
-41.9419
-12.3618
-361.011
-208.775
-109.101
-50.1275
-14.899
-7835.54
-4126.79
-99.6659
-25.7988
-15.6809
-13.0319
-32.7655
-4474.38
-2914.38
-1938.92
-1595.66
-337.558
-845.083
-168.195
-190.487
-94.8921
-6929.81
-1777.47
-160.763
-324.089
-843.895
-366.911
-295.584
-143.724
-46.3739
-48.0889
-125.513
-128.953
-7299.84
-3217.4
-3017.06
-1465.5
-873.307
-1523.53
-183.309
-86.3943
-307.937
-4000.13
-2358.81
-1241.22
-600.838
-244.604
-2059.71
-1070.74
-555.683
-256.08
-83.5963
-70.9841
-45.0209
-25.0456
-11.9239
-3.47174
-18.9666
-12.388
-7.06448
-3.42449
-1.00232
-11.6052
-7.62373
-4.36628
-2.12218
-0.621264
-9.78562
-6.52691
-3.79122
-1.8632
-0.548419
-24.0276
-15.6375
-8.88329
-4.29175
-1.25334
-2247.82
-1214.11
-628.039
-305.15
-138.278
-1469.33
-812.961
-419.122
-197.478
-67.7403
-1035.06
-542.898
-282.233
-129.772
-42.2773
-797.796
-427.279
-219.919
-99.708
-29.8901
-218.283
-128.447
-67.4761
-30.7714
-8.81526
-498.004
-275.47
-142.722
-64.6436
-18.7063
-114.641
-69.9243
-37.6447
-17.4697
-5.01836
-129.185
-78.4671
-42.0949
-19.481
-5.58775
-66.0951
-40.9705
-22.3126
-10.4355
-2.99985
-3466.53
-1861.75
-981.288
-469.255
-206.028
-1003.74
-554.823
-290.119
-133.377
-43.5476
-108.163
-65.5209
-35.173
-16.3265
-4.74493
-218.4
-132.754
-71.5739
-33.3917
-9.80478
-542.776
-321.3
-170.397
-78.7665
-23.7306
-247.665
-150.696
-81.2956
-37.9394
-11.1302
-202.673
-124.759
-67.8545
-31.8208
-9.29385
-100.853
-63.1104
-34.7266
-16.4074
-4.773
-33.0351
-20.9026
-11.5832
-5.49067
-1.59015
-34.8269
-22.4039
-12.6017
-6.04423
-1.7611
-87.1324
-53.9908
-29.4533
-13.8171
-4.00223
-90.3085
-56.4343
-31.0221
-14.6467
-4.26181
-3698.48
-2091.85
-1107.93
-521.335
-213.61
-1690.43
-904.815
-471.493
-217.437
-73.2517
-1698.07
-991.627
-509.906
-231.394
-75.2138
-891.174
-504.711
-265.471
-122.194
-37.936
-567.916
-338.563
-180.049
-83.2449
-24.8604
-922.135
-522.952
-274.89
-126.258
-38.7633
-125.666
-77.185
-41.876
-19.6021
-5.71533
-62.4108
-40.0305
-22.455
-10.7484
-3.12864
-212.42
-131.13
-71.4212
-33.5192
-9.76646
-5.73205
-19.9448
-43.5838
-82.6542
-139.846
-215.101
-4945.41
-12771.7
-10772
-4290.9
-15778.7
-14524.6
-13416.1
-13813.1
-4845.24
-3324.57
-11732.6
-6607.4
-18841.6
-17669.9
-1054.59
-3833.65
-10055.8
-8177.66
-3225.58
-12505.5
-11046.8
-10278
-10376.1
-3952.7
-1850.86
-10120.8
-3369.71
-13710.9
-11480
1982.53
-2480.46
-6629.85
-5104.88
-1981.2
-8426.91
-5814.37
-6664.37
-6297.57
-2715.93
-1777.24
-6605.58
-3637.8
-8945.36
-4712.56
1930.92
-1404.77
-3904.44
-2796.26
-1071.29
-4749.98
-2412.03
-3763.25
-3401.77
-1685.78
-1563.04
-4156.3
-3097.14
-5544.49
-1537.64
1230.24
-787.317
-2270.79
-1506.89
-575.207
-2352.25
-920.621
-2068.91
-1907.26
-993.449
-1507.3
-2253.59
-2510.84
-3231.46
-409.994
-188.394
-452.409
-1265.29
-826.145
-313.371
-1313.92
-778.322
-1116.27
-1132.07
-535.235
-1086.78
-1166.06
-1918.53
-2586.56
-1148.38
-1202.45
-1497.24
-3576.85
-6684.83
-2689.98
-5154.25
-7607.7
-8886.44
-10892.4
-726.041
-270.329
-2706.24
-910.421
-1278.78
-5674.98
-1742.42
-1262.37
-3016.65
-5339.84
-2137.98
-4270.85
-6130.61
-7149.47
-8205.03
-636.527
-130.803
-2452.63
-572.051
-519.337
-4647.19
-619.363
-887.674
-2117.37
-3502.25
-1390.81
-3051.06
-3982.47
-4785.85
-5351.86
-428.29
-98.9764
-1570.19
-408.398
-420.896
-2505.13
-253.236
-506.065
-1267.9
-1932.94
-762.707
-1825.21
-2146.1
-2785.37
-2998.82
-239.317
-59.8189
-922.686
-247.281
-191.541
-1326.73
-68.4699
-271.127
-699.449
-1029.73
-405.408
-908.216
-1035.1
-1524.76
-1658.3
-119.316
-66.921
-458.909
-190.288
-75.4172
-641.821
-83.8979
-139.414
-334.615
-545.233
-213.832
-445.208
-660.355
-797.312
-973.085
-65.8219
-62.147
-215.088
-135.195
-92.568
-499.329
-185.602
11322.5
14775.9
27773.5
43245.5
42997.9
75608.3
31023.2
79596.6
24451.4
54371.4
36681.5
57841.9
31840.4
44893.9
12349
14812.8
29804.6
32740.4
38178.3
37396.5
26511.7
29334.9
39891.9
34079.5
10401.8
8795.21
13124
9843.86
26516.3
22974.3
45947.9
36206.4
33890.1
34349.7
40778.1
39051
16104
12676.5
74976.7
99093
49981.2
60868.1
91695.9
118711
47975.8
55419
60226.4
84163.3
55224.6
71639.1
34960.1
53722.7
6821.39
2460.59
7192.2
2742.94
21481.5
9231.06
30041.1
11698.4
21805.9
8937.75
22587.8
7890.87
37744.8
12977
48629
17598.8
38577.6
20867.9
38175.7
22711.8
30518.3
19074.7
29641.7
19693.5
36063.2
23503.9
34815.8
20652.1
41424.9
24876.3
42510.3
25159.6
33361.6
21045.8
34579.6
21060.9
39790.3
26214.5
41597
26984.9
40314.9
20690.9
24301.1
34474.6
38987.9
22521.9
21438
34210.1
43536.7
20521.9
26867.9
35004.5
46120.5
20970.1
28670.6
36185.1
8383.31
8623.68
3094.89
6286.44
25024.5
25231.2
11001.6
20385.8
30512.1
31129.6
18518.3
31610.2
11566
-873.56
20871.5
33696.5
24014.2
-2105.7
3961.24
17126.9
34908.8
35684.6
11168.3
17842.3
21727.3
25038.9
44887.9
6159.7
3688.93
3857.45
2996.92
18266.8
11360
13409.1
9812.35
21217
13039.3
18472.5
12658.2
3084.09
3322.58
8734.56
7518.75
18128.8
12896.9
24880.2
16526.1
25700.6
16904.3
7601.03
4904.91
13077.2
6533.53
17320.5
8700.4
21130.2
10619.8
31644.4
15367.8
13235.4
3737.61
13080.8
7627.64
10878.5
8215.17
12225.4
10421.8
15824.8
9322.57
16866.5
4195.42
12276.8
10996.2
12022.5
11728.1
12174.1
12760.8
12255.9
13651.5
14791.5
13403.3
14491.2
14109.5
23561.4
11508.3
36269.9
12347.8
22292.8
5185.42
33156.9
6035.97
23072
14599.9
37020.5
13690.9
21523.5
16194.2
34916.2
16170.7
1922.79
1037.11
475.815
1632.66
901.71
444.307
6187.25
2631.42
983.548
5091.1
2100.85
785.015
6319.9
2576.78
1193.68
6335.58
2383.1
1059.36
1766.59
607.743
284.429
4449.96
1356.33
474.528
6592.6
2117.35
673.171
8213.1
2934.2
1128.13
8652.22
2857.39
948.615
4831.66
1939.45
689.272
4894.01
2018.37
636.193
6662.56
2568.03
743.226
7895.41
2941.31
830.845
11007.8
3671.29
888.545
11144.5
13478
9769.61
11774.5
16560.7
20751.1
16607.1
20912.9
-340.129
94.2519
-742.116
-132.279
1748.71
1488.81
507.271
118.36
1015.25
2254.22
8096.58
10272.9
3520.24
2285.59
12136.7
13024.9
23300.8
26554.7
44.4158
-3202.38
7253.97
7201.98
5083.04
3883.3
474.83
228.987
387.711
213.108
1434.19
194.847
330.637
-49.7024
5721.76
992.391
4457.55
938.422
6094.49
1341.53
7446.34
1553.86
9793.14
9000.65
9448.78
9087.77
17784.4
14791.3
17943.7
14540.8
5196.01
5342.92
5678.41
5143.86
10274.6
9130.66
11246.3
9156.43
19587.5
14802.6
20758.5
14786.8
5374.86
5357.02
5765.18
5377.22
126.662
254.374
2617.45
735.669
81.6356
177.805
2334.56
628.325
329.078
340.753
2723.07
805.556
472.951
372.754
2707.2
811.571
-111.415
-106.501
73.2788
7.83072
-628.748
-471.805
28.8175
-50.0688
142.646
-169.583
406.353
173.726
-4342.19
-6350.37
-1632.15
-947.386
-94.5293
-6936.76
-4863.69