/*--------------------------------*- C++ -*----------------------------------*\
  =========                 |
  \\      /  F ield         | OpenFOAM: The Open Source CFD Toolbox
   \\    /   O peration     | Website:  https://openfoam.org
    \\  /    A nd           | Version:  11
     \\/     M anipulation  |
\*---------------------------------------------------------------------------*/
FoamFile
{
    format      ascii;
    class       volScalarField;
    location    "0.2";
    object      gradTy;
}
// * * * * * * * * * * * * * * * * * * * * * * * * * * * * * * * * * * * * * //

dimensions      [0 -1 0 1 0 0 0];

internalField   nonuniform List<scalar> 
5712
(
18199.1
10387.1
27578.4
18708.8
29853
22891.9
42868.8
59097.8
58194.1
77618.4
39463.8
36042.5
25072.5
21070.6
13337.4
9136.35
24998.4
21746.4
22738.8
23884.5
32064.5
24009.3
41764.9
27986.8
12691.1
9957.42
7304.05
6347.71
13495.6
12541
8617.04
8408.28
30830.5
28881.1
26368.1
17907.2
20407.9
17540.8
14526.8
17310.7
22179.5
22708.9
56647.1
59083.6
33263.1
35434.7
28079.1
23102.9
24842.3
15616.9
12135.7
13195.8
15069
25405.2
7925.87
11105.1
19573.7
32784.9
12056.9
16235.8
19221.8
42540.2
13780.8
28242.8
4650.24
16559
3771.01
12262.7
16916.3
19849.5
19501.2
20830
17868.3
15767.9
20504.3
16322.8
20497.2
28316.1
19435.9
26635.7
19952.3
21275.1
20215.4
21361
22090.6
16525.4
22512.5
16418.1
19196
29134.1
18592.6
29428
34938.8
51799.2
43226
80734.7
36453.6
60414.8
41882.3
88049.3
33377.7
45113.4
43891.1
77531.9
33161.2
41765.1
44670.1
77133.4
15504.2
20369.7
40532.4
71999.5
18034.6
20361.2
49715.4
78335.2
20416.2
19817.7
59706
82305.1
24879.7
18383.7
29703.3
38298.4
74374.6
17232.8
23150.1
28950.2
32281.7
86063.9
15912
20650.1
25775.7
38278.4
99605.1
3624.79
3860.49
5935.32
19906.6
5208.33
5007.47
8630.4
20898.8
7260.29
4865.52
11852.4
22120.3
13875.4
9879.68
17832.9
12488.3
22180.8
14365.9
20143.2
13134.7
14726.2
24131.7
13274.6
9539.45
17779.1
13192.3
21246
15207.6
23219.1
16489.7
15211.5
23474.9
17902
16812.2
17410
16983.6
13588.4
11447.6
13101.2
11620.6
21296.2
18716.1
21971.1
18722.9
16856.9
16858.3
16732
16833.7
12522.5
11767.5
12382.9
11740.3
20626.2
18126
20511.8
17976.2
23344.1
19870.4
14989.4
20598.5
24055.1
19928.7
14841.6
20848.8
22898.5
19264.4
15326.3
20563
22576.2
18740.1
15758.8
20356.7
1885.95
700.271
257.949
952.184
296.067
154.689
2710.67
749.318
288.522
1719.92
735.586
251.339
2437.09
821.278
382.466
2893.08
1123.53
462.207
5511.06
2304.72
960.829
6919.33
2954.71
1258.58
6741.63
2790.39
1201.17
6263.6
2395.5
974.949
4386.77
1359.33
474.857
5652.29
2412.25
954.569
7785.81
3204.19
1233.12
8052.49
2976.82
1062.75
7061.59
2367.53
816.94
4620.73
1308.43
385.192
25974.2
21624.5
31852.7
24127.9
34346.6
24769.9
47438.7
29335.5
15569.7
11926
16210
11569.1
18219.1
13337.1
19183.1
12824.9
18849.5
16837
16838.4
16127.5
17371.3
17422.7
27710.2
29390.7
34819.9
37403.4
20340.5
22390.2
18045.4
18376.7
18639.2
20022.9
7222.52
2748.16
7092.54
3129.85
7867.55
2800.89
7503.94
3113.46
8431.94
2843.27
8336.94
3437.73
8614.2
3737.81
9152.83
3686.22
14296.4
9675.78
15743.4
10059.5
17984.5
13529.2
20256.6
13990.7
13234.5
6651.16
12573.7
6312.8
17281.9
10216.8
17988.5
10058.2
22399.7
14232.5
22943.6
14038.3
13982.5
6773.02
14337.2
6675.04
6265.05
2592.84
3876.84
1700.47
5305.49
2129.44
3584.1
1526.23
6771
2880.56
3983.35
1760.72
6900.45
3017.22
3925.3
1736.52
727.782
253.613
1059.94
412.394
752.029
297.645
1107
485.517
910.691
467.819
1226.72
659.051
5183.71
10408.4
3241.56
2650.02
1362.52
9012.16
4710.97
2056.07
1892.78
947.072
10845.2
6931.81
4464.83
2650.2
1185.26
74.2471
18.7228
162.032
76.045
97.4627
24.4725
214.458
103.85
189.37
58.2422
329.059
164.629
7462.78
5095.33
3577.87
2213.51
1638.52
964.017
1150.59
549.24
571.914
286.937
7798.17
4951.02
4544.63
2494.4
2687.33
1335.37
1532.19
712.167
773.99
416.016
5407.65
2579.91
5680.13
2740.15
8358.04
4829.06
8559.89
5096.37
3581.09
1589.27
3302.6
1449.15
5777.31
2775.4
5697.38
2744.33
8552.95
5315.11
8423.39
5274.08
3719.06
1612.08
3671.22
1602.18
2008.66
840.399
958.886
503.487
1843.38
758.169
900.68
451.003
2123.4
866.464
984.106
524.621
2145.38
863.836
1033.8
528.961
9.86747
4.09293
1.62416
61.2283
11.611
4.12161
7.65333
5.38378
2.33417
74.8246
15.6083
6.06371
23.0877
13.7102
6.56131
102.691
24.9278
10.1348
2690.15
1146.21
497.071
1114.01
477.98
213.395
472.318
198.39
91.2389
226.66
88.0238
38.737
155.164
41.1467
16.2566
2614.57
1061.2
409.379
1149.92
432.962
165.002
546.315
188.489
71.1928
283.193
91.1321
32.3975
237.611
53.0085
17.2776
690.018
145.405
29.2593
5.23521
830.74
173.936
34.3218
5.93773
693.628
145.185
29.1714
5.22476
850.33
180.825
36.5348
6.46184
693.362
140.933
30.1471
5.7693
893.353
184.141
39.9305
7.61282
1006.21
203.519
39.3839
6.72636
1018.93
209.019
38.7743
6.45304
694.809
150.271
32.9983
6.34873
464.314
103.988
23.6491
4.85853
564.458
123.168
28.2714
5.94556
417.555
94.5576
21.8852
4.66102
780.818
169.233
35.355
6.38616
487.201
109.748
24.3803
4.89144
817.527
178.599
36.4885
6.54933
490.041
112.315
24.9175
5.05784
407.409
99.5065
22.1501
4.38715
205.334
57.9954
14.6717
3.27026
405.741
98.4403
22.0376
4.42174
218.123
59.993
14.9905
3.34064
422.348
98.4081
22.5418
4.64584
261.714
66.6639
16.1558
3.53371
396.705
89.9878
21.0404
4.56821
299.103
70.8006
17.35
3.81484
346.157
81.3038
19.3269
4.31971
96.2876
33.8936
8.3838
1.5127
42.7867
23.4971
5.99472
1.08458
110.864
37.231
9.07354
1.65509
51.7841
26.283
6.52388
1.16791
145.894
43.9372
10.1283
1.77726
72.7868
31.7117
7.38412
1.28366
196.388
52.5825
11.8143
2.06971
104.742
38.7258
8.58822
1.4651
237.817
60.7593
13.8356
2.48439
128.951
45.0209
9.71678
1.63583
272.757
69.5015
14.8792
2.54724
147.032
52.5202
11.4343
1.90247
260.616
66.2103
14.4128
2.49495
135.887
49.5715
10.6827
1.77997
277.325
71.0024
14.689
2.42797
150.321
54.2192
11.6861
1.93173
286.587
72.255
14.8801
2.45824
154.324
55.2349
11.9001
1.96718
0.887749
0.18591
0.0365236
0.00675206
0.000994113
0.96242
0.196218
0.0379416
0.00694175
0.00101614
0.906186
0.193721
0.0379472
0.00698904
0.0010265
1.03151
0.207393
0.0397271
0.00723345
0.00105621
0.977472
0.202161
0.0392522
0.0072154
0.00105908
1.14892
0.216573
0.0411775
0.00749294
0.00109401
1.09121
0.223155
0.0430036
0.00783938
0.00114429
1.0952
0.22847
0.0444965
0.00814896
0.00119166
1.04779
0.212926
0.0411847
0.00755592
0.0011077
0.906277
0.203198
0.0406785
0.00757489
0.00111774
1.00983
0.203388
0.0396723
0.00732031
0.00107647
0.88579
0.198462
0.0397191
0.00740051
0.0010926
1.04414
0.218138
0.042632
0.00783938
0.00114954
0.92043
0.207289
0.0417366
0.00779078
0.00115064
1.08368
0.223927
0.0438955
0.00809737
0.00118963
0.950084
0.212349
0.0427592
0.00799469
0.00118236
0.795123
0.17286
0.0347741
0.00652571
0.000968593
0.672211
0.161816
0.0335171
0.00637241
0.000951686
0.81449
0.178641
0.0358813
0.00671425
0.000994423
0.692035
0.166861
0.0344634
0.00653203
0.000973364
0.857656
0.187534
0.0374
0.00696931
0.00102975
0.735517
0.176443
0.0360916
0.00679622
0.00100894
0.859252
0.191635
0.0383789
0.00715971
0.00105805
0.7766
0.186367
0.0377178
0.00706213
0.00104533
0.841652
0.193813
0.0389554
0.00727106
0.00107449
26634.8
36989.1
27192.4
36786
27886.7
36330.2
27883.5
35622.7
26759.8
34335.9
26221.2
28906.1
25750.6
29420.3
26646
29013.3
27328.2
29252.6
28019.5
4864.33
1325.75
598.439
219.347
27700.1
8923.85
2965.01
1402.55
519.695
28015.5
4808.47
1308.44
590.655
216.357
27575.4
8858.42
2947.09
1397.68
520.088
27879.5
4781.42
1303.62
589.754
216.18
27309.9
8811.14
2942.08
1398.23
520.988
27579.4
4696.93
1282.1
581.582
213.348
26835.8
8723.77
2931.13
1399.07
521.763
27031.2
4514.39
1232.54
559.286
204.785
26106.9
8536.69
2881.39
1377.22
512.978
26273
4565.66
1281.32
576.509
206.602
24311.3
8207.97
2820.84
1356.13
505.507
26379.1
4494.56
1246.15
563.031
203.892
24692.5
8280.95
2820.63
1349.72
502.431
26321.7
4628.18
1306.39
585.763
208.477
24314
8213.87
2832.49
1364.54
509.532
26400.6
4626.62
1306.69
584.983
207.459
24387.4
8245.57
2845.79
1373.14
513.642
40220.4
67915.3
65561.6
37785.8
17365.4
19252.3
26606.9
30014.4
24688.5
30602.5
43876.1
67695.8
58078.3
84689.7
35543.5
44023.9
25250.1
29049.8
12689.9
14736.7
1403.94
630.475
6.84146
1.76867
1.31442
0.953268
2.9797
1121.36
673.174
299.556
265.317
110.803
43.6438
105.999
37.0524
18.0335
20.514
10.7912
1088.02
242.025
41.8647
33.9266
90.2913
59.065
26.468
14.8433
5.00751
3.66716
15.0057
12.5909
1256.17
449.981
610.48
191.217
100.36
272.367
24.9683
6.64254
34.2067
2320.23
1475.25
888.991
520.335
476.952
1116.4
800.929
501.866
297.955
208.36
14.5444
13.9423
10.5017
7.09168
5.16587
3.85329
3.84662
3.01135
2.10534
1.57156
2.8852
2.9139
2.30399
1.62367
1.21846
2.10142
2.1384
1.70482
1.21137
0.914703
6.45574
6.37995
4.93801
3.41176
2.52254
1889.31
1240.46
731.726
408.55
376.685
1124.82
696.962
379.35
203.692
146.52
544.277
403.228
249.597
143.377
96.1802
436.366
271.734
144.953
75.4971
47.4144
175.866
109.335
58.2654
29.4735
17.5257
85.7599
71.9518
48.0231
29.1715
19.7734
197.917
152.315
95.1907
54.8931
36.1312
70.3193
55.5645
35.2424
20.4248
13.3008
36.6213
32.4277
22.6003
14.2061
9.82098
40.8406
34.9618
23.6305
14.4456
9.77167
22.2545
20.1941
14.3472
9.14755
6.37128
1865.22
1268.69
769.79
442.73
407.369
452.603
353.91
229.473
137.327
94.4853
83.9267
72.9611
50.3506
31.5096
21.8424
68.8334
61.1065
43.0046
27.3882
19.2132
176.531
147.933
99.9797
61.75
42.7698
119.062
104.712
73.2987
46.5448
32.6385
54.6424
49.9619
36.1262
23.5694
16.7936
31.144
29.1744
21.4646
14.1774
10.162
10.6568
10.2085
7.64979
5.12344
3.7017
7.87302
7.65962
5.83447
3.97038
2.90336
30.9979
28.2787
20.2858
13.0916
9.23232
26.309
24.4763
17.8919
11.7466
8.38488
2111.57
1389.11
845.188
493.701
452.621
813.483
603.855
384.679
230.739
161.275
1128.68
852.293
538.5
319.846
238.022
367.712
301.403
202.34
124.941
87.0268
199.187
171.215
118.191
74.349
51.979
514.628
410.611
270.95
164.152
113.34
51.5836
47.1809
34.0758
22.1905
15.782
14.1274
13.5334
10.1638
6.83481
4.9588
69.8539
62.6819
44.5278
28.5919
20.1587
25392
18224.5
25392.4
19922.8
30602.5
53319.1
33496.1
53826.9
24560.5
23305.9
22819.8
24673.3
24524.7
20162.1
38559.8
25955.9
22376.7
25767.3
11117.8
11544
23652.2
25894.9
12448.2
11996.2
33446.5
32838.1
29398.4
23182
33209.8
21940.1
14442.8
17379.5
22499.3
22833.8
56660
59251
32658.4
35341.1
29525.1
23446.6
26607.5
15975.1
13641.4
13580.9
32327.6
39419.6
13477.7
16178.9
34484.1
44575.8
16604
20450.5
30273.3
51472.4
17707.1
32821.4
5565.85
18137.8
3958.24
12573.4
19579.1
19926.6
20217
20916.3
16823.7
15024.3
19673.7
15936.6
23183.5
28939.1
26306.9
27630.7
20159.8
21326.6
20255.2
21377
21715.1
16350.8
22417.6
16369.3
20162.2
29448.7
18807.6
29519.4
37143.8
54625.9
44287.2
82046.1
39960.4
65064.7
43660.6
90463.4
34433.6
46488.5
44418.7
78180.3
33450
42151.4
44821.2
77327.4
44162.6
45388.5
62232.3
95385.8
42530.5
40679.5
66351.1
95902
38610.7
35084.1
70787.1
93588.6
18526.1
14410.6
26528.1
39977
79975.5
13176.5
15571.4
26111.9
33193.9
92443.8
13431.3
18212.2
25139.2
40069.8
103354
13213.6
8556.35
15186.6
24435.9
15320.1
10181.6
15713.9
24552.1
17744.6
11094.3
16501.3
24483.7
10528.8
7331.25
12621.3
8870.85
20447.3
13713.3
20972.7
13930.1
17026.2
25273.6
11255.2
8236.26
15446.4
11741.5
20287
14684
24238.1
17237.6
16419.3
23968.5
17242
16147.4
17222.2
16730.9
12696.8
10774.6
12715.2
11301.7
21438.9
18739.9
21977.6
18591
16794
16767.9
16718
16811.5
12362
11630
12339.3
11703.3
20711.4
18158.2
20536
17986.3
23750.8
20105.6
15372.1
20869.5
24724.1
20316.6
15570
21355.8
23099.2
19383.1
15509.9
20691.2
22635.8
18774.8
15816.8
20394.7
6100.99
5995.96
3596.94
2719.99
7245.83
5988.61
4194.85
3367.94
6874.68
4802.51
4824.76
3683.62
4871.02
3108.88
6118.7
4228.88
8187.02
5288.76
8337.15
4994.45
6353.14
3558.5
5433.6
3216.75
7761.69
4574.17
8736.56
4775.14
8560.48
4291.69
5610.35
2173.83
18999.1
15272.7
29157.6
21080.7
25401.9
18797.5
43884.4
26532.5
15354.4
9499.82
19197
11282.2
14826.5
9828.61
19235.6
11798.5
16890.4
12261.2
14212.6
10984.7
12168.6
15457.6
26315.3
28998.4
33687.8
37123.9
19236.4
22046.1
16819.9
18052.7
17441.4
19608.6
5548.69
2643.1
6427.68
2951.15
5896.57
2625.01
6760.99
2911.35
6254.45
2603.97
7472.26
3175.57
8044.79
3539.76
8940.95
3614.13
10799.3
8495.44
13995.4
9353.17
14594
11954.1
18467.3
13151
11613.1
6189.74
9383.74
5661.33
16432.2
9860.43
17745.4
9954.17
21605.9
13839.1
22733.2
13927.7
13147.3
6520.63
14083.4
6598.93
5655.94
2446.86
3658.27
1638.37
4613.54
2072.71
3353.59
1496.7
6412.71
2765.43
3848.87
1715.69
6789.76
2975.96
3883.16
1721.58
4323.37
3318.92
2030.27
1416.93
4501.57
3501.78
1964.93
1406.69
4613.31
3492.09
1907.49
1455.41
7568.59
10824.4
6696.69
3508.38
1668.71
9268.28
7388.58
6521.8
3184.04
1439.07
10546.8
7378.87
4993.08
2987.92
1322.7
2279.54
1334.73
948.26
591.204
2415.93
1419.29
980.493
621.695
2391.68
1409.04
1030.94
648.983
7510.95
4974.46
5479.05
3474.73
4154.21
2658.23
2301.92
1426.93
1029.25
645.135
7608.56
4777.81
5203.98
2954.66
3414.44
1865.47
2009.13
1070.29
961.526
571.629
5199.49
2618.15
5419.11
2666.22
7834.46
4610.64
8194.02
4925.96
3435.67
1566.17
3277.95
1556.2
5624.17
2716.75
5650.08
2725.01
8370.72
5220.95
8370.57
5246.7
3616.87
1579.06
3638.05
1590.08
1950.41
841.415
945.24
509.279
1883.79
847.445
936.579
504.983
2071.42
852.324
966.59
519.757
2127.06
857.9
1026.4
526.233
811.784
562.413
528.851
370.808
886.099
596.267
525.493
353.978
862.727
570.792
511.685
320.443
3096.41
1912.54
2051.23
1207.39
1587.08
975.557
834.743
479.866
473.156
252.513
2720.83
1511.56
1514.63
816.518
921.226
508.133
532.967
276.465
400.874
171.737
753.519
167.206
34.3974
6.20121
845.391
187.303
38.3
6.77681
739.594
163.591
33.5763
6.0393
848.433
189.762
39.6158
7.15272
717.997
154.71
33.7842
6.48572
875.646
189.052
42.1928
8.19165
981.461
204.465
40.441
7.021
1008.11
208.903
39.0583
6.54134
686.504
153.311
34.4339
6.73468
460.234
105.479
24.4098
5.08185
585.186
132.255
30.9474
6.55908
427.065
99.694
23.4379
5.03067
767.119
169.584
35.9857
6.58426
481.496
109.898
24.6982
5.00424
811.597
178.452
36.6561
6.60935
487.741
112.249
24.9998
5.09133
596.306
135.169
29.0278
5.57351
423.96
98.9608
22.4082
4.59762
576.226
130.679
28.2527
5.48648
419.183
97.6859
22.0683
4.55285
557.712
124.176
27.7264
5.55883
431.081
97.6827
22.0183
4.52721
473.509
107.509
24.8524
5.28804
409.948
93.5966
21.9176
4.60203
388.023
92.6663
21.9981
4.85906
281.745
71.7173
14.7864
2.41075
171.975
57.2579
12.0667
1.97468
288.842
72.8903
15.1317
2.52407
178.01
58.2578
12.2629
2.01038
307.02
74.505
15.2152
2.48929
191.309
59.4917
12.2915
2.00024
301.21
74.2153
15.7472
2.64453
189.28
59.3366
12.386
2.03558
284.769
72.4167
16.3633
2.9105
169.356
57.3539
12.234
2.03813
273.693
71.0533
15.4879
2.68116
150.16
54.5557
12.0492
2.02394
274.293
71.033
15.721
2.74158
151.103
55.2989
12.033
2.01645
275.39
71.3149
14.9303
2.48743
149.83
54.6969
11.9082
1.98213
285.482
72.2611
14.9399
2.47463
153.817
55.2815
11.9507
1.98025
1.05852
0.222938
0.0439449
0.00813709
0.00119911
1.11728
0.230652
0.0449401
0.00825934
0.00121206
1.05049
0.225765
0.044451
0.00821272
0.00120858
1.15925
0.235963
0.0455814
0.00834419
0.0012223
1.10135
0.228997
0.0447179
0.00825142
0.00121413
1.25408
0.239117
0.0458128
0.00837913
0.0012273
1.15283
0.237434
0.0460208
0.00842595
0.00123343
1.11571
0.233471
0.0455809
0.008363
0.00122447
1.12795
0.231691
0.0451071
0.00831364
0.00122245
0.962366
0.217779
0.0438565
0.00820235
0.0012139
1.11959
0.226746
0.0444511
0.00823261
0.00121372
0.966851
0.217372
0.0437128
0.00817565
0.00121031
1.08996
0.229711
0.0451458
0.00833584
0.00122568
0.951702
0.216109
0.0437397
0.00819642
0.00121369
1.09809
0.227606
0.0447175
0.00826283
0.00121528
0.95976
0.215181
0.0434191
0.0081307
0.00120372
0.99359
0.213372
0.0426813
0.00798177
0.00118273
0.898286
0.205157
0.0417666
0.00787537
0.0011717
0.991826
0.215041
0.0430543
0.00804437
0.00119094
0.898476
0.206644
0.0421017
0.00793255
0.00117922
1.00786
0.218224
0.0435111
0.00811419
0.00120011
0.907955
0.210334
0.042703
0.00802259
0.00119053
0.981598
0.217013
0.0435138
0.00813371
0.00120414
0.914442
0.213866
0.0432105
0.00809718
0.00120005
0.945307
0.215924
0.0435185
0.00814595
0.00120651
30054.2
38425.8
30055.3
38062.1
30039.4
37393.2
29174.3
36349.8
27464.6
34713.8
26435.3
29099.1
26154.5
29775.1
26748.8
29102.1
27358.3
29277.2
29085.4
4979.91
1340.49
600.36
219.547
28462.8
9099.81
2994.36
1406.79
520.173
28947.3
4910.3
1321.52
592.332
216.522
28247.5
9014.2
2973.12
1401.32
520.466
28589.6
4860.73
1313.94
591.031
216.286
27836.5
8935.47
2963.04
1401
521.206
28044.1
4750.46
1289.21
582.449
213.413
27203.6
8812.78
2946.35
1401.01
521.89
27303.7
4545.42
1236.66
559.77
204.817
26342
8595.24
2891.46
1378.48
513.085
26357.4
4574.92
1282.49
576.643
206.615
24404
8226.59
2823.79
1356.49
505.536
26537.6
4511.94
1248.38
563.28
203.906
24863.4
8316.56
2826.41
1350.36
502.465
26362
4632.64
1306.95
585.829
208.486
24356.1
8222.2
2833.75
1364.7
509.566
26412.5
4627.85
1306.84
584.989
207.454
24399.3
8247.93
2846.12
1373.17
513.646
39834.6
67852.1
64940.5
36471.9
23934.4
33318.5
22192.7
32984
31381.5
62223.2
34942.3
64466.7
0.0024627
0.00651898
0.0211349
0.0699857
0.235127
0.801511
0.0058799
0.0148642
0.0454616
0.139029
0.414637
1.19588
0.00107448
0.000587988
0.00324625
0.00204818
0.011847
0.00842232
0.0431233
0.0340634
0.153958
0.12718
0.525704
0.381492
2.73957
8.91681
26.9465
75.1323
167.232
245.537
3.30171
8.55087
20.3841
43.2773
76.1393
101.648
0.00564952
0.00618883
0.00538503
0.00419886
0.00341213
0.0148574
0.0160772
0.0137797
0.0105691
0.00847753
0.0478366
0.0511055
0.0431344
0.0325433
0.0257651
0.157161
0.165514
0.137394
0.101867
0.0795542
0.522919
0.541305
0.440752
0.320416
0.24644
1.76086
1.78426
1.41992
1.00921
0.762978
0.0134111
0.014534
0.0124808
0.00959288
0.00770714
0.0336665
0.0360153
0.0304489
0.023014
0.018246
0.102226
0.10792
0.089832
0.0667903
0.0522719
0.3102
0.322915
0.264527
0.19346
0.149475
0.916997
0.939748
0.756629
0.54384
0.414633
2.61788
2.63543
2.08205
1.4692
1.10473
0.00247607
0.00273679
0.00240897
0.00190259
0.00156187
0.00136087
0.00151674
0.00134923
0.0010782
0.000893368
0.00742929
0.00810569
0.00702104
0.00544807
0.00441006
0.00470644
0.00517463
0.00452531
0.00354841
0.00289612
0.026923
0.0289906
0.0247123
0.0188458
0.0150468
0.0192173
0.0208495
0.0179347
0.0138101
0.0111098
0.0972535
0.103252
0.0865458
0.0648276
0.0510332
0.0771411
0.0825207
0.0697726
0.0527313
0.0417946
0.344127
0.359429
0.295587
0.217042
0.168212
0.285648
0.300863
0.24966
0.184925
0.144252
1.16208
1.18989
0.957039
0.687014
0.523171
0.849575
0.880829
0.717449
0.521083
0.400192
5.92576
5.84727
4.52926
3.13824
2.32844
18.9169
18.0737
13.5776
9.15495
6.66542
55.7977
51.2589
37.2186
24.3966
17.4497
150.682
131.628
91.953
58.528
41.2259
322.159
264.132
176.986
109.711
76.6751
464.403
369.732
243.235
149.016
103.822
7.14139
7.04287
5.44879
3.77049
2.79494
18.2336
17.5576
13.2747
8.9997
6.57656
42.736
40.0222
29.5103
19.5901
14.121
88.9409
80.6679
57.9228
37.6633
26.8234
153.234
134.46
94.1837
60.1803
42.5046
202.288
174.384
120.592
76.3766
53.7338
0.00245401
0.00647787
0.0209916
0.0694911
0.233339
0.794791
0.00585816
0.0147641
0.0451284
0.137972
0.411331
1.18593
0.00107074
0.00058633
0.00322865
0.00204182
0.011784
0.00841844
0.0429161
0.0342371
0.153194
0.128615
0.523354
0.396158
2.71249
8.81749
26.6298
74.278
165.886
244.856
3.2731
8.475
20.2073
42.9422
75.7201
101.453
0.00563043
0.00617004
0.00537157
0.00419139
0.0034083
0.0147681
0.0159911
0.0137199
0.010538
0.00846359
0.04753
0.050819
0.0429465
0.0324576
0.0257389
0.156123
0.164584
0.13683
0.101661
0.0795512
0.519247
0.538176
0.43903
0.319985
0.246712
1.74739
1.77337
1.4145
1.00849
0.76473
0.0133635
0.0144872
0.0124472
0.00957392
0.00769702
0.033449
0.0358044
0.0302999
0.0229325
0.0182049
0.101508
0.107236
0.0893618
0.0665461
0.0521602
0.307943
0.32081
0.263125
0.192775
0.149202
0.910012
0.933357
0.752492
0.54192
0.413965
2.59706
2.61675
2.07025
1.46396
1.10312
0.00246801
0.00272906
0.00240362
0.00189989
0.00156078
0.00135736
0.00151354
0.0013473
0.0010776
0.000893571
0.00739164
0.00807078
0.00699894
0.00543938
0.00440924
0.00469372
0.00516512
0.00452286
0.00355252
0.00290386
0.0267927
0.02888
0.0246559
0.0188411
0.0150712
0.0192196
0.0208775
0.0179911
0.013886
0.0111942
0.0968508
0.102968
0.0864815
0.0649517
0.0512557
0.0776004
0.0831571
0.0704865
0.0534421
0.0424805
0.342775
0.358757
0.295881
0.21806
0.169575
0.28928
0.305533
0.254487
0.18939
0.148366
1.15888
1.19041
0.961388
0.693682
0.530792
0.884349
0.920827
0.754038
0.551259
0.425948
5.8722
5.80483
4.50824
3.13495
2.33427
18.7207
17.9176
13.4968
9.13535
6.67663
55.1771
50.767
36.9558
24.3162
17.4605
149.015
130.288
91.1817
58.2154
41.1489
319.503
261.911
175.579
109.002
76.3426
463.051
368.581
242.477
148.607
103.605
7.08213
6.99055
5.41631
3.75633
2.79078
18.0777
17.4217
13.1907
8.96249
6.56461
42.3757
39.7107
29.3169
19.5015
14.0885
88.2623
80.0816
57.551
37.482
26.7448
152.384
133.717
93.6933
59.9214
42.3722
201.891
174.031
120.352
76.2452
53.662
1398.24
628.272
6.75579
1.75562
1.47138
0.99609
2.98402
1060.27
653.339
291.496
287.839
45.8174
108.954
20.4742
27.8838
13.5797
1045.64
235.097
42.1395
33.5863
88.3505
57.9999
26.0521
14.7051
5.91846
4.02598
15.6455
12.6563
1239.26
445.105
594.962
188.126
98.4909
265.627
24.6036
6.61658
33.7131
2309.51
1466.77
883.734
517.684
475.44
1112.14
797.431
499.611
296.774
207.755
14.3904
13.851
10.4921
7.13663
5.23393
3.83205
3.83985
3.02142
2.12593
1.5963
3.23997
3.29332
2.62701
1.8713
1.41773
2.20215
2.25376
1.81053
1.29834
0.988346
6.48589
6.45081
5.03495
3.51403
2.62152
1828.93
1267.15
784.179
457.627
426.566
1144.39
791.681
483.411
285.354
209.555
540.853
419.846
273.956
165.554
114.645
519.973
375.411
231.724
138.098
92.6868
91.8222
80.1565
56.0228
35.6671
25.0195
209.142
170.625
113.992
70.2423
48.2902
42.3375
38.8099
28.1355
18.4193
13.1403
57.2017
51.7243
37.02
23.9571
16.9398
28.5105
26.7629
19.7722
13.1364
9.45721
1805.25
1249.74
774.16
455.635
424.649
443.374
353.311
234.463
143.921
101.022
85.3583
75.7919
53.6711
34.5411
24.4832
68.5962
61.7338
44.2038
28.7106
20.4779
173.991
148.08
102.046
64.4211
45.4386
117.341
104.009
73.5765
47.3215
33.5677
53.8863
49.4752
35.9874
23.6617
16.9849
30.9737
29.2464
21.7455
14.5454
10.5432
12.6961
12.3528
9.43827
6.46143
4.75568
8.69306
8.55283
6.60796
4.57081
3.38954
32.6531
30.3948
22.3404
14.805
10.6686
26.6159
25.0815
18.6333
12.4613
9.03569
2080.82
1366.36
832.136
487.991
450.532
804.266
596.629
380.291
228.654
160.409
1102.69
837.674
533.818
320.788
241.744
362.032
297.342
200.338
124.408
87.1999
195.852
169.093
117.489
74.5536
52.5683
503.697
405.334
270.652
166.399
116.452
50.9881
46.942
34.2047
22.518
16.1742
14.1324
13.6541
10.3684
7.06377
5.18362
69.1495
62.6243
45.0295
29.3331
20.9453
26.3044
37.6872
59.4558
85.3657
97.9929
48.9325
23497
23061.2
22967.7
25139.4
19796
18772.2
19674
16526.8
22301.7
38517.4
21891.1
37278.7
25206.8
19328.6
43301.8
20467.9
19824.8
19539.3
21169
16519.1
15674.6
16973.3
14548.5
20868.2
44881.9
20184.9
41650.4
23811.1
25188.7
44224.4
16355.7
15584.2
14815.5
15860.9
13066.4
12986.3
13103.5
11689.5
21657.7
32855.3
21619.8
31132.4
23245.4
26223.8
33086.3
11825.7
11200.1
9905.85
10521.3
9610.39
9769.77
8764.04
7993.09
15729.1
22807.7
15651.1
20580.8
16160
17993.7
21349.4
7917.47
7445.54
6358.41
6723.99
6869.64
7135.18
5643.77
5280.24
11185.9
13640.6
11137.3
11604.8
10579.2
9979.17
11866.4
5626.09
5301.97
4029.61
4257.72
4808.08
4745.08
3645.22
3387.39
7996.09
7914.8
7711.62
6739.41
6922.67
5250.13
7083.26
17834.9
16020.9
21314.5
23997.5
13997.3
12258.3
17521.4
14411.4
12322.6
6135.04
11771.6
6164.88
9287.84
7904.15
7869.87
14796.7
13446.4
17308.8
19190.9
11985.6
10702.8
14602.5
12124.1
9401.45
4545.79
9002.27
4591.78
6785.12
5414.87
5421.66
10571.3
9747.3
12165.4
13211.6
8813.89
7836.27
10617.7
8995.9
6559.45
3084.27
6047.18
2959.78
4568.46
3142.96
3699.49
6366.76
5931.22
7589.29
8129.61
5367.82
4666.19
6832.96
5777.62
3795.14
1769.84
3500.21
1723.6
2652.28
1875.29
2201.59
3742.46
3512.27
4656.85
4947.23
3083.66
2610.74
4286.8
3632.2
2134.43
1178.42
1954.97
1140.53
1595.53
1314.25
1409.85
2115.15
1988.84
2855.56
3021.58
1785.25
1608.64
2624.16
2305.86
1235.62
808.746
1155.12
810.788
1009.04
1003.25
1008.97
17982.2
10082.1
27557.1
18712.4
29880
22856.2
42902.5
59105.6
58263.3
77642.2
39539.8
36031.7
25092.5
21125.6
13007.4
8739.88
24995.3
21744.3
22727.2
23880.2
32076.7
24012.4
41768.7
27987.9
12466.8
9762.29
7074.04
6164.19
13441.6
12522.3
8606.44
8435.11
30814.3
28866.4
26360.2
17903.5
20397.9
17544.9
14524.6
17311.4
22178.5
22709.5
56652.8
59088
33264.2
35435.5
28078.7
23104.7
24842.9
15618.1
12136.7
13197.3
14816.8
25050.5
7724.99
10851
19580.9
32818.8
12091.8
16281.2
19226.3
42557.8
13795.8
28264.2
4653.34
16567.2
3771.92
12265.6
16914.6
19848.7
19500.3
20829.7
17868.9
15767.5
20504.4
16322.3
20499.1
28316.9
19434.3
26635.9
19951.8
21275.1
20215.2
21361.1
22090.5
16525
22512
16417.6
19196.8
29135
18593.3
29429.1
34942.5
51808.7
43229
80739.6
36456.5
60425.1
41885.4
88055.7
33380.9
45119.8
43893.6
77535.7
33164.2
41769.9
44672.4
77136.8
15304.3
20191.9
40096
71567
18047
20366.7
49756.2
78385.9
20422.3
19822.2
59724.7
82324.4
24876.7
18382.1
29700.3
38300.3
74385.1
17230.9
23146.8
28945.8
32282.1
86075
15910.9
20648.4
25775
38281.2
99613.3
3561.86
3827.68
5768.23
19748.4
5216.02
5016.42
8659.37
20921.2
7264.4
4867.45
11861.5
22125.7
13873.5
9878.14
17830.1
12486.3
22177.4
14363.8
20144.1
13135.6
14730.7
24134.6
13273.2
9538.2
17777.4
13191
21245.2
15207.1
23220.9
16490.9
15214.2
23476.7
17901.2
16811.2
17409.6
16983
13587.4
11446.5
13100.5
11619.8
21296.5
18716.2
21971.1
18722.9
16856.6
16857.9
16731.8
16833.3
12522
11766.9
12382.4
11739.8
20626.5
18126.1
20512.2
17976.4
23345.3
19871.2
14990.8
20599.5
24056.6
19929.7
14843.5
20850.2
22899.5
19265.1
15327.3
20563.8
22577.2
18740.6
15759.8
20357.3
1869.62
692.989
254.339
953.838
295
153.124
2722.08
753.4
289.199
1728.86
739.023
252.032
2437.35
821.507
382.652
2893.75
1124.26
462.65
5510.16
2304.39
960.733
6918.4
2954.49
1258.57
6741.22
2790.51
1201.33
6263.96
2395.81
975.203
4387.3
1359.68
475.062
5651.43
2411.91
954.46
7784.94
3203.89
1233.06
8052.18
2976.77
1062.79
7061.96
2367.67
817.05
4621.16
1308.61
385.279
25976.9
21623.9
31853.7
24127.2
34360.8
24773.7
47450
29338.2
15379.8
11854.1
15968.2
11481.5
18177.4
13305.2
19138.1
12794
18841.6
16829.6
16837
16124.2
17351.8
17405
27709.3
29389.1
34821.7
37403.7
20336.9
22387.7
18043.2
18374.4
18630
20017.9
7207.85
2748.75
7072.02
3130.36
7849.1
2795.66
7487.7
3108.62
8419.01
2838.78
8325.48
3433
8607.54
3734.34
9149.23
3684.18
14293.1
9674.44
15740.8
10058.2
17984.7
13528.5
20256.5
13989.9
13227.7
6649.47
12565.4
6310.82
17279.9
10215.5
17986.6
10056.9
22399.2
14231.6
22942.5
14037.2
13978.1
6771.61
14334.2
6673.76
6261.67
2590.68
3875.22
1699.55
5301.92
2127.31
3582.22
1525.16
6768.45
2878.81
3982.06
1759.97
6898.52
3015.93
3924.23
1735.91
725.294
251.634
1056.79
410.007
751.176
297.494
1105.74
485.219
909.506
467.34
1225.12
658.337
5183.78
10408.2
3241.06
2648.54
1361.25
9011.75
4710.84
2056.05
1891.8
946.223
10844.6
6931.03
4463.54
2648.75
1184.34
73.4001
18.2148
160.927
75.4741
97.4884
24.4232
214.336
103.772
189.236
58.2255
328.771
164.507
7461.95
5094.56
3577.41
2213.13
1638.31
963.824
1150.05
549.021
571.469
286.744
7797.38
4950.32
4544.01
2493.97
2686.63
1335.02
1531.46
711.862
773.455
415.756
5406.87
2579.46
5679.39
2739.74
8357.36
4828.51
8559.25
5095.91
3580.29
1588.9
3301.71
1448.74
5776.64
2775.05
5696.68
2743.99
8552.33
5314.7
8422.74
5273.7
3718.37
1611.77
3670.57
1601.89
2007.98
840.123
958.442
503.252
1842.59
757.86
900.155
450.741
2122.83
866.237
983.746
524.424
2144.87
863.634
1033.48
528.794
9.65116
4.00799
1.5878
60.8563
11.4863
4.06011
7.59994
5.37176
2.33316
74.7573
15.6043
6.06441
23.0849
13.7067
6.55965
102.617
24.9163
10.1313
2689.68
1146.01
496.995
1113.79
477.883
213.354
472.191
198.339
91.2169
226.576
87.9943
38.7253
155.056
41.1265
16.2501
2614.12
1061.01
409.313
1149.69
432.869
164.967
546.164
188.438
71.1744
283.076
91.0983
32.387
237.449
52.9808
17.2702
690.221
145.35
29.2297
5.22862
830.682
173.729
34.262
5.92756
692.73
145.039
29.1439
5.22034
849.436
180.677
36.5066
6.45693
692.42
140.771
30.1153
5.76371
892.283
183.954
39.8933
7.60612
1005.26
203.339
39.3507
6.72092
1018.29
208.884
38.7495
6.44899
694.174
150.132
32.9681
6.34302
464
103.909
23.6302
4.85449
563.857
123.037
28.2421
5.93961
417.207
94.4718
21.8647
4.65663
780.253
169.104
35.3277
6.3812
486.937
109.68
24.3641
4.88798
817.092
178.495
36.4667
6.54535
489.825
112.258
24.904
5.05495
407.312
99.4938
22.1419
4.38402
205.031
57.9481
14.6637
3.27025
405.273
98.3408
22.0163
4.41785
217.918
59.9373
14.9771
3.33783
421.81
98.2932
22.5171
4.64108
261.407
66.5881
16.1381
3.53002
396.279
89.8876
21.0173
4.56339
298.781
70.7207
17.3307
3.81074
345.834
81.2215
19.3071
4.31532
96.1599
33.8791
8.38424
1.51394
42.6809
23.4552
5.98632
1.08342
110.772
37.1975
9.06502
1.65345
51.7476
26.2649
6.51929
1.16711
145.74
43.8884
10.1171
1.77531
72.7186
31.6781
7.37616
1.28228
196.192
52.5246
11.8009
2.06739
104.646
38.6839
8.57843
1.46341
237.608
60.6989
13.8211
2.48176
128.845
44.976
9.70638
1.63403
272.595
69.453
14.8677
2.54516
146.95
52.4833
11.4254
1.90091
260.425
66.1539
14.3995
2.49258
135.791
49.5288
10.6727
1.77823
277.193
70.9621
14.6796
2.42632
150.254
54.1888
11.6788
1.93046
286.474
72.2212
14.8723
2.45689
154.267
55.2097
11.8941
1.96613
0.886923
0.185657
0.036468
0.00674149
0.000992563
0.960865
0.195784
0.0378585
0.00692701
0.00101404
0.905516
0.193588
0.0379223
0.00698458
0.00102586
1.03077
0.20726
0.0397014
0.00722881
0.00105555
0.976617
0.202
0.0392224
0.00721014
0.00105833
1.14799
0.216412
0.0411479
0.00748769
0.00109327
1.09036
0.222989
0.0429729
0.00783393
0.00114351
1.09452
0.228333
0.0444703
0.00814426
0.00119098
1.04689
0.212753
0.0411526
0.00755024
0.00110689
0.905505
0.20303
0.0406459
0.00756902
0.00111689
1.00889
0.203215
0.0396404
0.00731467
0.00107567
0.884965
0.198288
0.039686
0.00739459
0.00109175
1.04333
0.217974
0.0426009