/*--------------------------------*- C++ -*----------------------------------*\
  =========                 |
  \\      /  F ield         | OpenFOAM: The Open Source CFD Toolbox
   \\    /   O peration     | Website:  https://openfoam.org
    \\  /    A nd           | Version:  11
     \\/     M anipulation  |
\*---------------------------------------------------------------------------*/
FoamFile
{
    format      ascii;
    class       volScalarField;
    location    "0.2";
    object      T;
}
// * * * * * * * * * * * * * * * * * * * * * * * * * * * * * * * * * * * * * //

dimensions      [0 0 0 1 0 0 0];

internalField   nonuniform List<scalar> 
5712
(
502.019
536.262
482.969
523.5
458.493
507.442
423.631
477.113
425.507
467.758
457.867
501.459
479.38
518.838
494.392
530.46
439.485
402.088
479.104
423.138
404.007
369.169
440.282
385.261
513.983
526.089
543.213
550.106
493.274
507.482
530.574
540.147
496.416
463.026
451.401
429.59
481.609
514.435
517.275
517.569
443.349
451.871
482.381
481.191
402.509
408.594
526.294
531.567
474.689
487.577
542.859
549.54
535.073
557.128
556.623
566.511
518.503
550.003
548.398
562.969
486.779
534.747
516.532
550.399
537.945
559.34
546.221
562.488
374.321
353.347
387.872
356.773
344.191
329.165
354.781
331.497
425.081
388.533
409.345
383.273
397.719
358.304
400.166
357.5
362.505
332.475
364.067
331.648
436.203
391.06
439.377
390.587
466.297
528.499
432.879
502.049
449.314
517.334
424.637
493.155
478.158
534.861
436.938
506.769
482.084
537.26
437.097
508.778
513.48
474.071
545.418
516.008
489.435
451.758
534.851
502.342
456.149
424.14
516.901
483.4
347.193
317.806
383.66
424.781
495.16
311.602
338.526
371.217
406.387
467.106
317.491
342.601
373.452
412.493
475.746
406.498
357.432
415.052
366.502
397.672
353.274
413.251
365.022
385.429
346.569
410.532
363.783
300.995
290.882
324.179
307.206
350.655
325.523
378.335
344.511
411.435
367.69
305.037
293.369
327.128
311.292
353.683
331.227
384.726
353.453
417.909
378.365
332.178
320.988
330.864
321.334
310.012
295.517
310.08
296.184
356.256
345.68
358.524
345.346
328.486
320.812
327.796
320.539
309.108
296.247
308.574
295.991
352.814
344.619
352.017
344.329
388.186
373.599
420.54
402.357
390.404
372.468
422.533
400.287
384.943
372.397
418.601
401.909
382.556
370.759
415.584
399.476
316.078
292.402
282.76
319.561
293.414
283.174
315.311
291.811
282.153
319.288
292.928
282.544
311.419
289.605
280.758
319.055
291.997
281.58
282.009
276.821
274.673
291.028
280.6
276.278
301.034
284.644
277.971
310.696
288.554
279.702
321.217
291.951
280.801
283.536
277.245
274.661
295.022
282.239
276.682
306.269
286.669
278.308
317.576
290.655
279.678
326.975
293.546
280.579
328.966
319.2
336.198
325.03
362.221
340.587
379.595
350.847
307.961
293.387
309.003
294.177
309.72
295.393
311.259
296.155
310.928
307.798
309.528
305.566
297.797
299.587
329.631
332.332
359.067
362.878
313.579
316.859
312.602
314.493
301.418
303.219
282.918
276.36
284.612
277.012
283.855
276.449
285.49
277.145
285.385
276.591
288.059
277.58
289.536
278.197
289.719
278.318
303.591
295.251
308.98
296.674
320.994
309.627
328.536
311.451
295.758
286.441
292.033
285.437
312.143
297.208
313
296.901
333.42
312.152
334.542
311.575
297.776
286.838
298.335
286.69
284.924
276.595
280.071
275.363
282.586
275.93
279.395
275.115
286.23
277.053
280.354
275.478
286.648
277.27
280.303
275.484
277.228
274.802
275.008
274.029
277.699
275.189
275.041
274.111
278.724
276.178
275.188
274.369
289.785
300.131
283.304
279.087
275.076
295.886
286.843
280.518
277.401
274.585
299.893
289.303
282.351
278.048
274.75
273.724
273.284
273.501
273.238
273.943
273.381
273.584
273.288
274.518
273.649
273.783
273.406
288.091
281.745
281.419
277.297
277.53
275.195
275.52
274.169
274.045
273.575
290.59
282.649
282.976
277.895
278.592
275.627
276.022
274.373
274.213
273.667
285.013
278.233
286.122
278.853
294.222
283.411
295.45
284.169
280.323
276.138
279.573
275.75
286.793
279.068
286.673
279.016
295.882
284.313
295.6
284.188
280.859
276.306
280.802
276.284
276.613
274.526
274.371
273.715
276.359
274.353
274.311
273.667
276.779
274.605
274.394
273.731
276.955
274.635
274.47
273.766
273.085
273.025
273.009
273.058
273.015
273.005
273.122
273.038
273.014
273.075
273.02
273.007
273.216
273.071
273.028
273.111
273.03
273.011
277.016
274.642
273.714
274.75
273.693
273.303
273.839
273.312
273.135
273.398
273.128
273.049
273.159
273.041
273.013
277.304
274.571
273.597
274.922
273.634
273.233
273.963
273.296
273.104
273.469
273.132
273.043
273.183
273.042
273.012
273.751
273.142
273.025
273.004
273.896
273.166
273.029
273.004
273.75
273.141
273.025
273.004
273.931
273.173
273.03
273.005
273.727
273.136
273.026
273.005
273.946
273.174
273.033
273.006
274.048
273.192
273.032
273.005
274.078
273.199
273.033
273.005
273.775
273.147
273.028
273.005
273.54
273.107
273.022
273.004
273.637
273.122
273.025
273.005
273.492
273.098
273.021
273.004
273.873
273.165
273.03
273.005
273.57
273.113
273.023
273.004
273.922
273.175
273.031
273.005
273.583
273.116
273.024
273.004
273.516
273.104
273.021
273.004
273.304
273.067
273.015
273.003
273.511
273.102
273.021
273.004
273.315
273.068
273.015
273.003
273.511
273.101
273.021
273.004
273.349
273.073
273.016
273.003
273.468
273.093
273.02
273.004
273.37
273.076
273.017
273.004
273.424
273.086
273.019
273.004
273.18
273.044
273.01
273.002
273.125
273.034
273.007
273.002
273.197
273.047
273.01
273.002
273.14
273.037
273.008
273.002
273.232
273.053
273.011
273.003
273.168
273.042
273.009
273.002
273.276
273.06
273.013
273.003
273.204
273.049
273.01
273.002
273.318
273.068
273.014
273.003
273.237
273.055
273.011
273.002
273.364
273.078
273.016
273.003
273.276
273.064
273.013
273.002
273.347
273.074
273.015
273.003
273.261
273.061
273.012
273.002
273.372
273.08
273.016
273.003
273.285
273.067
273.013
273.003
273.379
273.081
273.016
273.003
273.291
273.068
273.013
273.003
273.001
273
273
273
273
273.001
273
273
273
273
273.001
273
273
273
273
273.001
273
273
273
273
273.001
273
273
273
273
273.001
273
273
273
273
273.001
273
273
273
273
273.001
273
273
273
273
273.001
273
273
273
273
273.001
273
273
273
273
273.001
273
273
273
273
273.001
273
273
273
273
273.001
273
273
273
273
273.001
273
273
273
273
273.001
273
273
273
273
273.001
273
273
273
273
273.001
273
273
273
273
273.001
273
273
273
273
273.001
273
273
273
273
273.001
273
273
273
273
273.001
273
273
273
273
273.001
273
273
273
273
273.001
273
273
273
273
273.001
273
273
273
273
273.001
273
273
273
273
422.4
414.756
422.616
415.239
423.303
416.44
424.995
418.497
428.238
422.076
431.233
430.499
431.295
429.005
430.6
430.35
430.136
429.678
533.191
555.009
560.281
562.392
563.614
498.18
535.985
547.487
552.416
555.253
533.667
555.244
560.446
562.531
563.735
498.643
536.169
547.563
552.486
555.322
533.867
555.316
560.495
562.576
563.78
498.949
536.238
547.603
552.525
555.364
534.551
555.62
560.709
562.76
563.948
499.506
536.398
547.711
552.633
555.479
536.027
556.278
561.168
563.142
564.283
500.879
536.95
548.066
552.914
555.714
535.099
555.45
560.526
562.586
563.737
502.885
537.326
548.157
552.921
555.673
535.944
556.035
560.975
562.975
564.111
502.716
537.573
548.433
553.183
555.921
534.429
555.03
560.204
562.305
563.466
502.632
537.026
547.882
552.668
555.436
534.407
554.999
560.174
562.276
563.431
502.2
536.78
547.679
552.486
555.283
346.472
393.242
390.096
341.871
322.658
324.682
326.618
330.304
338.158
344.184
374.132
390.724
385.933
403.838
355.276
363.232
340.731
345.996
332.633
335.766
284.522
278.649
273.091
273.025
273.019
273.014
273.042
282.35
278.353
275.754
275.067
273.833
273.469
274.017
273.366
273.21
273.227
273.13
282.428
275.386
273.475
273.397
273.974
273.683
273.325
273.189
273.066
273.05
273.183
273.158
283.599
277.191
278.905
275.008
274.123
275.755
273.306
273.088
273.407
279.235
276.342
274.758
273.817
273.274
276.443
274.985
274.04
273.479
273.146
273.067
273.043
273.025
273.012
273.004
273.019
273.013
273.007
273.004
273.001
273.014
273.01
273.006
273.003
273.001
273.011
273.007
273.004
273.002
273.001
273.031
273.021
273.012
273.006
273.002
278.109
275.68
274.371
273.625
273.219
275.807
274.377
273.675
273.301
273.094
274.706
273.971
273.496
273.223
273.066
274.076
273.518
273.245
273.105
273.03
273.432
273.206
273.095
273.039
273.011
273.317
273.19
273.101
273.046
273.013
273.646
273.37
273.189
273.084
273.024
273.237
273.137
273.07
273.031
273.009
273.146
273.091
273.049
273.023
273.007
273.155
273.094
273.05
273.023
273.006
273.092
273.058
273.032
273.015
273.004
278.316
275.854
274.488
273.684
273.237
274.539
273.907
273.477
273.219
273.065
273.328
273.202
273.109
273.051
273.015
273.278
273.174
273.095
273.045
273.013
273.658
273.399
273.214
273.099
273.029
273.476
273.296
273.162
273.076
273.022
273.232
273.147
273.082
273.039
273.011
273.137
273.088
273.049
273.024
273.007
273.048
273.032
273.018
273.009
273.003
273.037
273.024
273.014
273.007
273.002
273.13
273.082
273.045
273.021
273.006
273.114
273.073
273.041
273.019
273.006
278.869
276.169
274.669
273.774
273.266
275.616
274.526
273.805
273.372
273.112
276.68
275.083
274.099
273.506
273.158
274.338
273.809
273.434
273.202
273.059
273.772
273.475
273.258
273.121
273.035
274.802
274.075
273.57
273.262
273.078
273.219
273.139
273.077
273.037
273.011
273.064
273.042
273.024
273.012
273.003
273.287
273.18
273.099
273.047
273.014
434.846
512.124
422.119
502.503
392.896
475.99
404.073
484.81
400.467
374.955
463.283
409.34
370.952
347.065
426.337
373.62
458.867
483.38
524.63
536.02
446.144
469.134
516.554
528.8
481.127
426.049
437.441
401.134
449.169
501.606
512.3
516.351
437.366
450.304
477.513
479.867
397.221
407.108
521.156
530.398
468.892
486.138
538.918
548.711
512.888
550.006
548.77
563.919
497.548
543.235
541.632
560.617
467.089
528.389
506.848
547.176
534.472
558.125
545.519
562.226
361.462
347.116
379.606
353.049
333.863
323.97
347.945
328.29
416.728
385.074
395.957
377.349
393.675
356.429
399.04
356.953
359.071
330.821
363.099
331.159
432.16
389.336
438.255
390.087
460.014
526.323
430.364
501.06
439.155
513.713
420.22
491.336
475.112
533.78
435.7
506.288
481.237
536.948
436.739
508.637
478.729
437.197
534.565
503.653
459.322
420.789
525.05
491.289
432.334
400.478
508.738
474.388
343.684
319.909
374.047
413.072
490.396
315.258
336.364
361.41
392.696
460.996
317.338
338.707
366.882
406.133
472.828
377.796
340.081
402.325
360.599
372.573
337.344
402.233
359.675
364.954
332.803
401.906
359.256
305.15
293.854
322.759
305.822
342.548
319.265
367.165
336.197
406.193
364.584
306.44
294.341
324.96
309.77
348.753
327.984
379.543
350.137
415.122
376.718
329.353
319.226
328.968
320.116
308.487
295.16
308.639
295.567
354.306
344.293
355.18
342.959
327.506
320.168
327.501
320.348
308.301
295.842
308.324
295.863
351.843
343.944
351.73
344.134
386.679
372.449
419.709
401.644
387.595
370.346
420.967
398.968
384.206
371.852
418.203
401.583
382.327
370.598
415.465
399.384
319.007
310.25
331.511
319.162
317.006
307.107
330.307
316.083
312.704
302.029
328.804
311.662
285.631
280.655
293.547
285.897
302.737
292.121
313.997
299.855
330.238
308.023
285.089
279.683
296.315
286.478
307.759
292.926
320.441
299.509
332.605
305.231
316.137
308.7
330.689
319.284
340.436
324.716
370.429
342.29
302.754
290.108
307.922
292.703
302.405
291.363
308.485
294.325
307.366
300.237
305.636
298.688
293.131
297.295
326.519
331.354
354.817
361.602
311.236
315.992
310.333
313.726
299.788
302.59
282.787
276.684
284.127
277.103
283.404
276.692
284.811
277.154
284.549
276.732
287.043
277.503
288.741
278.079
289.418
278.266
299.666
293.587
305.785
295.349
313.964
306.253
323.564
309.18
293.947
285.823
290.237
284.852
310.317
296.439
312.446
296.663
330.78
310.923
333.775
311.205
296.641
286.442
297.972
286.564
284.333
276.56
279.855
275.347
282.42
276.045
279.322
275.169
285.75
276.988
280.188
275.452
286.478
277.241
280.247
275.473
280.575
278.318
275.922
275.085
280.952
278.712
275.884
275.103
281.681
279.667
275.882
275.236
293.475
304.213
286.177
280.413
275.478
301.471
292.183
285.04
279.577
275.167
301.601
290.961
283.456
278.628
274.965
276.391
274.996
274.411
273.879
276.784
275.247
274.477
273.93
277.598
275.79
274.619
274.028
294.048
286.201
286.847
281.439
281.499
278.257
277.553
275.779
274.593
274.022
293.552
284.816
285.466
279.749
280.127
276.773
276.784
274.95
274.452
273.873
285.114
278.707
285.705
278.82
293.861
283.846
294.595
283.971
280.163
276.16
279.772
276.079
286.462
278.966
286.561
278.975
295.319
284.101
295.418
284.114
280.695
276.264
280.743
276.265
276.581
274.555
274.379
273.733
276.52
274.533
274.383
273.743
276.722
274.594
274.386
273.731
276.93
274.628
274.464
273.764
274.285
274.008
273.415
273.314
274.459
274.092
273.436
273.314
274.727
274.144
273.463
273.28
280.698
277.496
277.791
275.782
276.066
274.826
274.576
273.893
273.435
273.211
279.005
276.19
276.235
274.692
274.774
273.929
273.876
273.444
273.309
273.131
273.864
273.167
273.03
273.005
273.967
273.186
273.033
273.005
273.846
273.163
273.029
273.005
273.979
273.188
273.033
273.005
273.799
273.154
273.03
273.005
273.973
273.185
273.035
273.006
274.054
273.197
273.034
273.005
274.078
273.2
273.033
273.005
273.792
273.153
273.03
273.005
273.548
273.11
273.023
273.005
273.684
273.134
273.028
273.005
273.519
273.105
273.023
273.005
273.876
273.168
273.031
273.005
273.571
273.114
273.023
273.004
273.921
273.176
273.032
273.005
273.583
273.116
273.024
273.005
273.7
273.137
273.026
273.005
273.515
273.104
273.022
273.004
273.677
273.133
273.026
273.005
273.509
273.103
273.021
273.004
273.644
273.126
273.026
273.005
273.509
273.102
273.021
273.004
273.558
273.111
273.024
273.005
273.488
273.099
273.021
273.004
273.483
273.099
273.022
273.005
273.376
273.08
273.016
273.003
273.301
273.069
273.013
273.003
273.382
273.081
273.016
273.003
273.306
273.07
273.013
273.003
273.39
273.082
273.016
273.003
273.312
273.07
273.013
273.003
273.389
273.082
273.016
273.003
273.312
273.07
273.013
273.003
273.379
273.081
273.017
273.004
273.302
273.069
273.013
273.003
273.373
273.081
273.016
273.003
273.287
273.068
273.013
273.003
273.372
273.081
273.017
273.004
273.291
273.068
273.013
273.003
273.374
273.081
273.016
273.003
273.288
273.068
273.013
273.003
273.379
273.082
273.016
273.003
273.291
273.068
273.013
273.003
273.001
273
273
273
273
273.001
273
273
273
273
273.001
273
273
273
273
273.001
273
273
273
273
273.001
273
273
273
273
273.001
273
273
273
273
273.001
273
273
273
273
273.001
273
273
273
273
273.001
273
273
273
273
273.001
273
273
273
273
273.001
273
273
273
273
273.001
273
273
273
273
273.001
273
273
273
273
273.001
273
273
273
273
273.001
273
273
273
273
273.001
273
273
273
273
273.001
273
273
273
273
273.001
273
273
273
273
273.001
273
273
273
273
273.001
273
273
273
273
273.001
273
273
273
273
273.001
273
273
273
273
273.001
273
273
273
273
273.001
273
273
273
273
273.001
273
273
273
273
417.318
411.319
418.169
412.202
419.91
414.053
422.77
416.824
426.932
421
430.83
430.088
430.538
428.243
430.407
430.164
430.079
429.625
532.537
554.926
560.271
562.391
563.614
497.187
535.821
547.463
552.414
555.253
533.091
555.17
560.437
562.53
563.736
497.765
536.024
547.542
552.484
555.321
533.418
555.258
560.488
562.575
563.78
498.25
536.12
547.587
552.523
555.363
534.248
555.58
560.704
562.76
563.948
499.005
536.312
547.699
552.631
555.478
535.851
556.255
561.165
563.142
564.282
500.548
536.893
548.058
552.912
555.713
535.047
555.443
560.525
562.586
563.736
502.78
537.309
548.155
552.921
555.672
535.846
556.022
560.973
562.975
564.11
502.515
537.54
548.428
553.181
555.92
534.404
555.026
560.203
562.305
563.466
502.586
537.019
547.881
552.668
555.436
534.401
554.998
560.174
562.276
563.432
502.187
536.778
547.679
552.486
555.283
345.234
391.7
385.159
338.275
323.49
334.309
320.744
333.758
351.751
382.4
357.593
385.047
273
273
273
273.001
273.004
273.012
273
273
273.001
273.002
273.006
273.017
273
273
273
273
273
273
273.001
273.001
273.002
273.002
273.008
273.006
273.038
273.117
273.333
273.861
274.759
275.486
273.046
273.114
273.26
273.525
273.879
274.144
273
273
273
273
273
273
273
273
273
273
273
273
273
273
273
273.001
273.001
273
273
273
273.003
273.002
273.001
273.001
273
273.009
273.006
273.004
273.002
273.001
273
273
273
273
273
273
273
273
273
273
273.001
273
273
273
273
273.002
273.001
273.001
273
273
273.005
273.003
273.002
273.001
273
273.013
273.009
273.005
273.003
273.001
273
273
273
273
273
273
273
273
273
273
273
273
273
273
273
273
273
273
273
273
273
273
273
273
273
273
273
273
273
273
273.001
273
273
273
273
273
273
273
273
273
273.002
273.001
273.001
273
273
273.002
273.001
273.001
273
273
273.006
273.004
273.002
273.001
273
273.004
273.003
273.002
273.001
273
273.029
273.019
273.011
273.005
273.002
273.086
273.056
273.032
273.015
273.005
273.239
273.152
273.085
273.041
273.012
273.598
273.372
273.203
273.096
273.028
274.174
273.709
273.381
273.178
273.052
274.627
273.97
273.518
273.241
273.071
273.034
273.023
273.013
273.006
273.002
273.084
273.055
273.031
273.015
273.004
273.188
273.121
273.068
273.033
273.01
273.373
273.236
273.131
273.062
273.018
273.613
273.381
273.209
273.099
273.029
273.789
273.487
273.265
273.125
273.036
273
273
273
273.001
273.004
273.012
273
273
273.001
273.002
273.006
273.017
273
273
273
273
273
273
273.001
273.001
273.002
273.002
273.008
273.006
273.038
273.117
273.33
273.853
274.745
275.479
273.046
273.113
273.258
273.521
273.875
274.142
273
273
273
273
273
273
273
273
273
273
273
273
273
273
273
273.001
273.001
273
273
273
273.003
273.002
273.001
273.001
273
273.009
273.006
273.004
273.002
273.001
273
273
273
273
273
273
273
273
273
273
273.001
273
273
273
273
273.002
273.001
273.001
273
273
273.005
273.003
273.002
273.001
273
273.013
273.009
273.005
273.003
273.001
273
273
273
273
273
273
273
273
273
273
273
273
273
273
273
273
273
273
273
273
273
273
273
273
273
273
273
273
273
273
273.001
273
273
273
273
273
273
273
273
273
273.002
273.001
273.001
273
273
273.002
273.001
273.001
273
273
273.006
273.004
273.002
273.001
273
273.005
273.003
273.002
273.001
273
273.028
273.019
273.011
273.005
273.002
273.086
273.056
273.032
273.015
273.005
273.237
273.151
273.085
273.041
273.012
273.593
273.369
273.202
273.096
273.028
274.165
273.704
273.379
273.177
273.052
274.622
273.968
273.516
273.24
273.071
273.034
273.023
273.013
273.006
273.002
273.084
273.055
273.031
273.015
273.004
273.187
273.121
273.068
273.033
273.01
273.371
273.235
273.131
273.062
273.018
273.61
273.38
273.208
273.098
273.029
273.787
273.486
273.265
273.125
273.036
284.467
278.627
273.09
273.025
273.022
273.015
273.042
282.361
278.839
275.855
275.682
273.525
274.136
273.252
273.336
273.174
282.257
275.384
273.495
273.403
273.978
273.68
273.322
273.19
273.08
273.056
273.198
273.163
283.45
277.146
278.809
274.983
274.111
275.725
273.305
273.089
273.408
279.201
276.324
274.75
273.814
273.274
276.428
274.977
274.036
273.478
273.146
273.067
273.044
273.025
273.012
273.004
273.019
273.013
273.007
273.004
273.001
273.016
273.011
273.007
273.003
273.001
273.011
273.008
273.005
273.002
273.001
273.032
273.021
273.012
273.006
273.002
278.352
275.919
274.541
273.717
273.25
276.368
274.812
273.95
273.437
273.133
274.835
274.087
273.575
273.265
273.079
274.602
273.871
273.455
273.207
273.059
273.364
273.226
273.124
273.058
273.017
273.755
273.454
273.243
273.112
273.032
273.181
273.115
273.064
273.031
273.009
273.238
273.15
273.083
273.039
273.011
273.126
273.081
273.046
273.022
273.006
278.306
275.899
274.537
273.716
273.249
274.561
273.937
273.502
273.233
273.07
273.348
273.218
273.12
273.057
273.017
273.285
273.18
273.1
273.048
273.014
273.668
273.412
273.224
273.105
273.031
273.477
273.299
273.165
273.078
273.023
273.231
273.147
273.082
273.039
273.012
273.139
273.09
273.051
273.024
273.007
273.06
273.039
273.023
273.011
273.003
273.042
273.028
273.016
273.008
273.002
273.143
273.092
273.052
273.025
273.007
273.119
273.077
273.044
273.021
273.006
278.783
276.127
274.652
273.769
273.265
275.588
274.51
273.798
273.369
273.112
276.641
275.076
274.105
273.513
273.161
274.325
273.803
273.433
273.202
273.06
273.767
273.475
273.259
273.122
273.036
274.795
274.081
273.579
273.269
273.08
273.219
273.14
273.079
273.038
273.011
273.066
273.043
273.025
273.012
273.004
273.29
273.184
273.102
273.049
273.014
273.018
273.061
273.131
273.24
273.387
273.558
395.814
384.868
359.21
368.697
368.287
353.439
344.488
329.856
421.775
445.552
409.499
429.035
391.329
376.673
407.171
375.693
367.219
344.295
351.417
354.035
342.017
333.042
321.645
398.701
410.857
388.493
397.471
372.324
360.15
379.971
347.818
342.342
323.885
328.254
333.55
325.383
316.786
309.202
365.227
371.959
357.987
363.08
346.985
338.439
351.292
320.369
317.27
304.433
306.794
311.96
306.643
300.514
296.094
333.504
338.354
328.897
332.595
321.672
315.327
324.703
301.956
300.221
291.811
293.078
297.082
293.904
289.694
287.224
310.952
316.003
308.061
312.338
303.885
299.819
307.354
290.552
289.555
284.154
284.844
287.837
286.231
282.989
281.667
297.423
304.19
295.56
301.212
293.263
290.869
297.268
313.393
310.088
331.931
337.869
305.659
300.848
322.843
312.991
297.43
286.016
296.576
286.737
293.673
292.899
287.909
307.19
304.405
322.184
326.9
300.668
296.677
314.898
306.867
292.731
282.854
292.06
283.556
289.53
289.117
284.471
297.806
295.848
308.195
311.26
293.228
290.384
303.39
297.985
287.333
279.741
286.782
280.238
285.008
284.721
280.91
288.058
286.941
294.439
296.119
285.316
283.399
291.776
288.491
281.71
277.077
281.411
277.362
280.326
280.041
277.789
281.676
281.078
285.566
286.458
280.168
279.046
284.145
282.328
277.987
275.548
277.846
275.684
277.319
277.127
275.938
277.88
277.573
280.268
280.739
277.158
276.656
279.514
278.579
275.972
274.78
275.91
274.835
275.673
275.62
274.975
503.148
537.242
483.014
523.404
458.51
507.402
423.62
477.085
425.498
467.726
457.902
501.431
479.471
518.793
495.622
531.613
439.476
402.072
479.073
423.118
403.989
369.152
440.257
385.242
514.936
526.822
543.985
550.668
493.255
507.438
530.444
540.037
496.364
463.003
451.371
429.57
481.577
514.377
517.263
517.561
443.333
451.858
482.368
481.181
402.494
408.581
526.277
531.559
474.671
487.566
542.842
549.534
535.615
557.347
557.005
566.656
518.448
549.978
548.324
562.94
486.744
534.731
516.488
550.381
537.928
559.333
546.214
562.485
374.307
353.336
387.857
356.763
344.178
329.155
354.768
331.487
425.062
388.522
409.327
383.261
397.705
358.295
400.153
357.491
362.493
332.466
364.055
331.64
436.188
391.051
439.364
390.578
466.277
528.491
432.87
502.045
449.293
517.324
424.626
493.149
478.145
534.856
436.93
506.766
482.073
537.256
437.09
508.775
514.174
474.807
545.717
516.402
489.376
451.697
534.821
502.294
456.115
424.107
516.882
483.379
347.181
317.798
383.644
424.761
495.15
311.594
338.516
371.202
406.365
467.092
317.483
342.591
373.439
412.479
475.739
407.104
357.777
415.504
366.768
397.629
353.264
413.227
365.018
385.402
346.555
410.517
363.778
300.989
290.878
324.171
307.199
350.641
325.514
378.317
344.499
411.425
367.684
305.03
293.365
327.12
311.286
353.672
331.219
384.715
353.445
417.903
378.36
332.17
320.981
330.857
321.329
310.005
295.513
310.074
296.18
356.249
345.674
358.515
345.339
328.481
320.808
327.79
320.535
309.103
296.244
308.569
295.988
352.808
344.615
352.011
344.325
388.18
373.594
420.536
402.354
390.397
372.462
422.528
400.283
384.938
372.394
418.598
401.907
382.552
370.756
415.582
399.474
316.261
292.481
282.798
319.718
293.485
283.206
315.315
291.816
282.156
319.289
292.933
282.548
311.416
289.605
280.759
319.053
291.998
281.582
282.007
276.82
274.672
291.025
280.599
276.277
301.029
284.643
277.97
310.691
288.553
279.702
321.214
291.95
280.802
283.534
277.244
274.661
295.018
282.238
276.682
306.264
286.667
278.308
317.572
290.653
279.678
326.972
293.545
280.579
328.915
319.172
336.145
325.002
362.185
340.566
379.557
350.825
307.816
293.36
308.818
294.133
309.638
295.346
311.177
296.111
310.883
307.752
309.499
305.535
297.759
299.551
329.61
332.317
359.05
362.864
313.552
316.843
312.581
314.478
301.395
303.205
282.925
276.36
284.612
277.011
283.836
276.444
285.471
277.141
285.366
276.586
288.038
277.574
289.52
278.192
289.709
278.315
303.576
295.242
308.965
296.666
320.98
309.617
328.521
311.442
295.744
286.435
292.018
285.43
312.131
297.202
312.99
296.895
333.408
312.145
334.531
311.568
297.765
286.833
298.326
286.686
284.914
276.591
280.067
275.361
282.576
275.927
279.39
275.113
286.222
277.05
280.35
275.477
286.642
277.268
280.301
275.483
277.221
274.795
275.008
274.027
277.693
275.187
275.038
274.11
278.716
276.175
275.186
274.367
289.777
300.124
283.297
279.081
275.074
295.879
286.837
280.513
277.397
274.584
299.885
289.296
282.345
278.044
274.748
273.721
273.283
273.501
273.238
273.943
273.381
273.584
273.288
274.516
273.649
273.782
273.406
288.087
281.742
281.415
277.295
277.527
275.194
275.518
274.168
274.044
273.574
290.585
282.647
282.972
277.893
278.588
275.626
276.02
274.372
274.212
273.666
285.008
278.231
286.118
278.851
294.217
283.408
295.446
284.166
280.32
276.136
279.569
275.748
286.79
279.066
286.67
279.014
295.877
284.311
295.596
284.186
280.856
276.305
280.799
276.283
276.611
274.525
274.37
273.715
276.357
274.352
274.31
273.667
276.777
274.604
274.394
273.731
276.954
274.634
274.469
273.766
273.084
273.025
273.009
273.058
273.015
273.005
273.122
273.038
273.015
273.075
273.02
273.007
273.216
273.071
273.028
273.111
273.03
273.011
277.015
274.642
273.714
274.75
273.693
273.303
273.839
273.312
273.135
273.398
273.128
273.049
273.159
273.041
273.013
277.303
274.571
273.597
274.922
273.634
273.233
273.963
273.296
273.104
273.469
273.132
273.043
273.183
273.042
273.012
273.75
273.142
273.025
273.004
273.895
273.166
273.029
273.004
273.749
273.141
273.025
273.004
273.93
273.173
273.03
273.005
273.727
273.136
273.026
273.005
273.945
273.174
273.033
273.006
274.047
273.192
273.032
273.005
274.077
273.199
273.033
273.005
273.775
273.147
273.028
273.005
273.54
273.107
273.022
273.004
273.636
273.122
273.025
273.005
273.491
273.097
273.021
273.004
273.872
273.165
273.03
273.005
273.57
273.113
273.023
273.004
273.921
273.175
273.031
273.005
273.583
273.116
273.024
273.004
273.516
273.104
273.021
273.004
273.304
273.067
273.015
273.003
273.511
273.102
273.021
273.004
273.314
273.068
273.015
273.003
273.51
273.101
273.021
273.004
273.349
273.073
273.016
273.003
273.467
273.093
273.02
273.004
273.37
273.076
273.017
273.004
273.423
273.085
273.019
273.004
273.18
273.044
273.01
273.002
273.125
273.034
273.007
273.002
273.197
273.047
273.01
273.002
273.14
273.037
273.008
273.002
273.232
273.053
273.011
273.003
273.168
273.042
273.009
273.002
273.276
273.06
273.013
273.003
273.204
273.048
273.01
273.002
273.318
273.068
273.014
273.003
273.237
273.055
273.011
273.002
273.364
273.078
273.016
273.003
273.276
273.064
273.012
273.002
273.346
273.074
273.015
273.003
273.261
273.061
273.012
273.002
273.372
273.08
273.016
273.003
273.285
273.067
273.013
273.003
273.379
273.081
273.016
273.003
273.291
273.068
273.013
273.003
273.001
273
273
273
273
273.001
273
273
273
273
273.001
273
273
273
273
273.001
273
273
273
273
273.001
273
273
273
273
273.001
273
273
273
273
273.001
273
273
273
273
273.001
273
273
273
273
273.001
273
273
273
273
273.001
273
273
273
273
273.001
273
273
273
273
273.001
273
273
273
273
273.001
273
273
273
273
273.001
273
273
273
273
273.001
273
273
273
273
273.001
273
273
273
273
273.001
273
273
273
273
273.001
273
273
273
273
273.001
273
273
273
273
273.001
273
273
273
273
273.001
273
273
273
273
273.001
273
273
273
273
273.001
273
273
273
273
273.001
273
273
273
273
273.001
273
273
273
273
422.514
414.887
422.645
415.262
423.31
416.446
424.994
418.497
428.235
422.074
431.231
430.497
431.292
429.003
430.598
430.349
430.135
429.677
533.461
555.157
560.387
562.481
563.692
498.337
536.088
547.564
552.481
555.311
533.648
555.237
560.443
562.529
563.734
498.657
536.182
547.574
552.497
555.332
533.864
555.315
560.496
562.576
563.78
498.953
536.242
547.607
552.529
555.368
534.551
555.62
560.71
562.76
563.949
499.507
536.399
547.712
552.634
555.481
536.026
556.278
561.168
563.142
564.283
500.878
536.95
548.066
552.914
555.715
535.099
555.45
560.526
562.586
563.737
502.885
537.326
548.157
552.921
555.673
535.944
556.035
560.975
562.975
564.111
502.715
537.573
548.432
553.182
555.921
534.429
555.03
560.204
562.305
563.466
502.632
537.026
547.882
552.668
555.436
534.407
554.999
560.174
562.276
563.431
502.2
536.78
547.679
552.486
555.283
346.454
393.225
390.071
341.84
322.323
324.241
326.499
330.18
338.075
344.098
374.083
390.668
385.884
403.78
355.191
363.142
340.612
345.871
332.055
335.006
284.521
278.649
273.091
273.025
273.019
273.014
273.042
282.348
278.352
275.754
275.066
273.832
273.469
274.016
273.366
273.21
273.226
273.13
282.426
275.385
273.475
273.397
273.974
273.682
273.325
273.189
273.066
273.05
273.183
273.158
283.597
277.19
278.904
275.007
274.123
275.755
273.306
273.088
273.407
279.234
276.342
274.758
273.817
273.274
276.442
274.984
274.04
273.479
273.146
273.067
273.043
273.025
273.012
273.004
273.019
273.013
273.007
273.004
273.001
273.014
273.01
273.006
273.003
273.001
273.011
273.007
273.004
273.002
273.001
273.031
273.021
273.012
273.006
273.002
278.108
275.679
274.371
273.625
273.219
275.806
274.376
273.675
273.301
273.094
274.705
273.971
273.496
273.223
273.066
274.076
273.518
273.245
273.105
273.03
273.432
273.206
273.095
273.039
273.011
273.316
273.19
273.101
273.046
273.013
273.646
273.37
273.189
273.084
273.024
273.237
273.137
273.07
273.031
273.009
273.146
273.091
273.049
273.023
273.007
273.155
273.094
273.05
273.023
273.006
273.092
273.058
273.032
273.015
273.004
278.315
275.853
274.487
273.683
273.237
274.538
273.907
273.477
273.218
273.065
273.328
273.202
273.109
273.051
273.015
273.278
273.174
273.095
273.045
273.013
273.658
273.399
273.214
273.099
273.029
273.476
273.296
273.162
273.076
273.022
273.232
273.147
273.082
273.039
273.011
273.137
273.088
273.049
273.024
273.007
273.048
273.032
273.018
273.009
273.003
273.037
273.024
273.014