/*--------------------------------*- C++ -*----------------------------------*\
  =========                 |
  \\      /  F ield         | OpenFOAM: The Open Source CFD Toolbox
   \\    /   O peration     | Website:  https://openfoam.org
    \\  /    A nd           | Version:  11
     \\/     M anipulation  |
\*---------------------------------------------------------------------------*/
FoamFile
{
    format      ascii;
    class       volScalarField;
    location    "8";
    object      epsilon;
}
// * * * * * * * * * * * * * * * * * * * * * * * * * * * * * * * * * * * * * //

dimensions      [0 2 -3 0 0 0 0];

internalField   nonuniform List<scalar> 
700
(
2.44067e-05
2.44067e-05
2.44067e-05
2.44067e-05
2.44067e-05
2.44067e-05
2.44067e-05
2.44067e-05
2.44067e-05
2.44067e-05
2.44067e-05
2.44067e-05
2.44067e-05
2.44067e-05
2.44067e-05
2.44067e-05
2.44067e-05
2.44067e-05
2.44067e-05
2.44067e-05
2.44067e-05
2.44067e-05
2.44067e-05
2.44067e-05
2.44067e-05
2.44067e-05
2.44067e-05
2.44067e-05
2.44067e-05
2.44067e-05
2.44067e-05
2.44067e-05
2.44067e-05
2.44067e-05
2.44067e-05
2.44067e-05
2.44067e-05
2.44067e-05
2.44067e-05
2.44067e-05
2.44067e-05
2.44067e-05
2.44067e-05
2.44067e-05
2.44067e-05
2.44067e-05
2.44067e-05
2.44067e-05
2.44067e-05
2.44067e-05
2.44067e-05
2.44067e-05
2.44067e-05
2.44067e-05
2.44067e-05
2.44067e-05
2.44067e-05
2.44067e-05
2.44067e-05
2.44067e-05
2.44068e-05
2.44068e-05
2.44067e-05
2.44067e-05
2.44067e-05
2.44067e-05
2.44067e-05
2.44067e-05
2.44067e-05
2.44067e-05
2.44088e-05
2.44082e-05
2.44075e-05
2.44071e-05
2.44068e-05
2.44067e-05
2.44066e-05
2.44065e-05
2.44062e-05
2.4406e-05
2.44457e-05
2.44325e-05
2.44199e-05
2.44122e-05
2.44086e-05
2.4407e-05
2.44056e-05
2.44031e-05
2.43987e-05
2.43934e-05
2.4959e-05
2.47229e-05
2.45518e-05
2.44623e-05
2.44235e-05
2.44063e-05
2.43919e-05
2.4367e-05
2.43174e-05
2.42214e-05
2.71676e-05
2.58246e-05
2.49964e-05
2.46286e-05
2.44725e-05
2.4398e-05
2.43441e-05
2.42896e-05
2.42322e-05
2.42147e-05
2.6538e-05
2.59244e-05
2.52038e-05
2.47863e-05
2.45696e-05
2.44603e-05
2.43962e-05
2.43423e-05
2.42827e-05
2.42308e-05
2.56431e-05
2.56096e-05
2.51855e-05
2.4869e-05
2.46615e-05
2.45362e-05
2.44616e-05
2.44106e-05
2.43644e-05
2.43154e-05
2.45835e-05
2.49836e-05
2.48961e-05
2.47751e-05
2.46614e-05
2.45712e-05
2.45062e-05
2.44602e-05
2.44243e-05
2.43895e-05
2.34993e-05
2.41624e-05
2.43715e-05
2.44685e-05
2.45005e-05
2.44986e-05
2.44826e-05
2.44629e-05
2.44436e-05
2.44243e-05
2.257e-05
2.33303e-05
2.37456e-05
2.40211e-05
2.41964e-05
2.43023e-05
2.43624e-05
2.43938e-05
2.4408e-05
2.44123e-05
2.19757e-05
2.27182e-05
2.32357e-05
2.36142e-05
2.38846e-05
2.40726e-05
2.41996e-05
2.42827e-05
2.43353e-05
2.43673e-05
2.18465e-05
2.25226e-05
2.30516e-05
2.34514e-05
2.37481e-05
2.39636e-05
2.41166e-05
2.42227e-05
2.42944e-05
2.43416e-05
2.22395e-05
2.28245e-05
2.3279e-05
2.3619e-05
2.38699e-05
2.40518e-05
2.41814e-05
2.42725e-05
2.43361e-05
2.43808e-05
2.3199e-05
2.35477e-05
2.37999e-05
2.39933e-05
2.41379e-05
2.42437e-05
2.43212e-05
2.43801e-05
2.44295e-05
2.44778e-05
2.40842e-05
2.40563e-05
2.41187e-05
2.41979e-05
2.42688e-05
2.43252e-05
2.43681e-05
2.44007e-05
2.44259e-05
2.44441e-05
2.42278e-05
2.42297e-05
2.42549e-05
2.42911e-05
2.43274e-05
2.43587e-05
2.43835e-05
2.44026e-05
2.44168e-05
2.4426e-05
2.43157e-05
2.43195e-05
2.4331e-05
2.43474e-05
2.4365e-05
2.43809e-05
2.4394e-05
2.44043e-05
2.44117e-05
2.44163e-05
2.43638e-05
2.43661e-05
2.43712e-05
2.43785e-05
2.43865e-05
2.4394e-05
2.44004e-05
2.44055e-05
2.44091e-05
2.44113e-05
2.4388e-05
2.43891e-05
2.43912e-05
2.43943e-05
2.43977e-05
2.4401e-05
2.44039e-05
2.44062e-05
2.44079e-05
2.44088e-05
2.43992e-05
2.43997e-05
2.44005e-05
2.44017e-05
2.44031e-05
2.44044e-05
2.44056e-05
2.44066e-05
2.44073e-05
2.44077e-05
2.4404e-05
2.44042e-05
2.44045e-05
2.44049e-05
2.44054e-05
2.44059e-05
2.44064e-05
2.44067e-05
2.4407e-05
2.44071e-05
2.44059e-05
2.44059e-05
2.4406e-05
2.44062e-05
2.44063e-05
2.44065e-05
2.44066e-05
2.44068e-05
2.44069e-05
2.44069e-05
2.44065e-05
2.44065e-05
2.44066e-05
2.44066e-05
2.44066e-05
2.44067e-05
2.44067e-05
2.44068e-05
2.44068e-05
2.44068e-05
2.44067e-05
2.44067e-05
2.44067e-05
2.44067e-05
2.44067e-05
2.44067e-05
2.44067e-05
2.44067e-05
2.44068e-05
2.44067e-05
2.44067e-05
2.44067e-05
2.44067e-05
2.44067e-05
2.44067e-05
2.44067e-05
2.44067e-05
2.44067e-05
2.44067e-05
2.44067e-05
2.44067e-05
2.44067e-05
2.44067e-05
2.44067e-05
2.44067e-05
2.44067e-05
2.44067e-05
2.44067e-05
2.44067e-05
2.44067e-05
2.44067e-05
2.44067e-05
2.44067e-05
2.44067e-05
2.44067e-05
2.44067e-05
2.44067e-05
2.44067e-05
2.44067e-05
2.44067e-05
2.44067e-05
2.44067e-05
2.44067e-05
2.44067e-05
2.44067e-05
2.44067e-05
2.44067e-05
2.44067e-05
2.44067e-05
2.44067e-05
2.44067e-05
2.44067e-05
2.44067e-05
2.44067e-05
2.44067e-05
2.44067e-05
2.44067e-05
2.44067e-05
2.44067e-05
2.44067e-05
2.44067e-05
2.44067e-05
2.44067e-05
2.44067e-05
2.44067e-05
2.44067e-05
2.44067e-05
2.44067e-05
2.44067e-05
2.44067e-05
2.44067e-05
2.44067e-05
2.44067e-05
2.44067e-05
2.44067e-05
2.44067e-05
2.44067e-05
2.44067e-05
2.44067e-05
2.44067e-05
2.44067e-05
2.44067e-05
2.44067e-05
2.44067e-05
2.44067e-05
2.44067e-05
2.44067e-05
2.44067e-05
2.44067e-05
2.44067e-05
2.44067e-05
2.44067e-05
2.44067e-05
2.44067e-05
2.44067e-05
2.44067e-05
2.44067e-05
2.44067e-05
2.44067e-05
2.44067e-05
2.44067e-05
2.44067e-05
2.44067e-05
2.44067e-05
2.44067e-05
2.44067e-05
2.44067e-05
2.44067e-05
2.44067e-05
2.44067e-05
2.44756e-05
2.44872e-05
2.44999e-05
2.45115e-05
2.45198e-05
2.45239e-05
2.45237e-05
2.45184e-05
2.451e-05
2.45006e-05
2.4453e-05
2.44643e-05
2.4475e-05
2.44808e-05
2.44792e-05
2.44705e-05
2.44565e-05
2.44395e-05
2.44213e-05
2.44027e-05
2.44432e-05
2.44511e-05
2.44565e-05
2.44556e-05
2.44475e-05
2.4434e-05
2.44175e-05
2.44e-05
2.43826e-05
2.43654e-05
2.44415e-05
2.44469e-05
2.44479e-05
2.44428e-05
2.44327e-05
2.44199e-05
2.44071e-05
2.43954e-05
2.43857e-05
2.43785e-05
2.44488e-05
2.44545e-05
2.44518e-05
2.4443e-05
2.44313e-05
2.44197e-05
2.44104e-05
2.44044e-05
2.44023e-05
2.44056e-05
2.44675e-05
2.44796e-05
2.44739e-05
2.44591e-05
2.44423e-05
2.44278e-05
2.44172e-05
2.44107e-05
2.44082e-05
2.44105e-05
2.45018e-05
2.45325e-05
2.45245e-05
2.44987e-05
2.44701e-05
2.44452e-05
2.44251e-05
2.44082e-05
2.43927e-05
2.4378e-05
2.45578e-05
2.46301e-05
2.46208e-05
2.4577e-05
2.45267e-05
2.44799e-05
2.4436e-05
2.43895e-05
2.43371e-05
2.42857e-05
2.46465e-05
2.47982e-05
2.47874e-05
2.47161e-05
2.46325e-05
2.45485e-05
2.44554e-05
2.43359e-05
2.41813e-05
2.40337e-05
2.47402e-05
2.50753e-05
2.50947e-05
2.50188e-05
2.492e-05
2.48081e-05
2.46558e-05
2.44022e-05
2.39499e-05
2.31496e-05
2.44511e-05
2.44412e-05
2.44335e-05
2.44302e-05
2.44308e-05
2.44341e-05
2.44363e-05
2.44274e-05
2.43806e-05
2.42182e-05
2.44292e-05
2.44264e-05
2.44223e-05
2.44189e-05
2.44162e-05
2.4413e-05
2.44062e-05
2.43906e-05
2.43595e-05
2.43138e-05
2.44179e-05
2.44168e-05
2.44145e-05
2.44116e-05
2.44082e-05
2.44036e-05
2.43962e-05
2.43846e-05
2.43686e-05
2.43532e-05
2.4412e-05
2.44114e-05
2.441e-05
2.44078e-05
2.4405e-05
2.44011e-05
2.43957e-05
2.43885e-05
2.43806e-05
2.43746e-05
2.44091e-05
2.44087e-05
2.44078e-05
2.44064e-05
2.44044e-05
2.44017e-05
2.43983e-05
2.43943e-05
2.43903e-05
2.43877e-05
2.44077e-05
2.44075e-05
2.44069e-05
2.4406e-05
2.44048e-05
2.44032e-05
2.44013e-05
2.43991e-05
2.43972e-05
2.4396e-05
2.44071e-05
2.4407e-05
2.44066e-05
2.44061e-05
2.44055e-05
2.44046e-05
2.44036e-05
2.44025e-05
2.44015e-05
2.4401e-05
2.44069e-05
2.44068e-05
2.44066e-05
2.44063e-05
2.4406e-05
2.44056e-05
2.4405e-05
2.44045e-05
2.44041e-05
2.44038e-05
2.44068e-05
2.44067e-05
2.44066e-05
2.44065e-05
2.44063e-05
2.44061e-05
2.44059e-05
2.44056e-05
2.44054e-05
2.44053e-05
2.44067e-05
2.44067e-05
2.44067e-05
2.44066e-05
2.44065e-05
2.44064e-05
2.44063e-05
2.44061e-05
2.4406e-05
2.4406e-05
2.44067e-05
2.44067e-05
2.44067e-05
2.44067e-05
2.44067e-05
2.44067e-05
2.44067e-05
2.44067e-05
2.44067e-05
2.44067e-05
2.44067e-05
2.44067e-05
2.44067e-05
2.44067e-05
2.44067e-05
2.44067e-05
2.44067e-05
2.44067e-05
2.44067e-05
2.44067e-05
2.44067e-05
2.44067e-05
2.44067e-05
2.44067e-05
2.44067e-05
2.44067e-05
2.44067e-05
2.44067e-05
2.44067e-05
2.44067e-05
2.44067e-05
2.44067e-05
2.44067e-05
2.44067e-05
2.44067e-05
2.44067e-05
2.44067e-05
2.44067e-05
2.44067e-05
2.44067e-05
2.44067e-05
2.44067e-05
2.44067e-05
2.44067e-05
2.44067e-05
2.44067e-05
2.44067e-05
2.44067e-05
2.44067e-05
2.44067e-05
2.44067e-05
2.44067e-05
2.44067e-05
2.44067e-05
2.44067e-05
2.44067e-05
2.44067e-05
2.44067e-05
2.44067e-05
2.44067e-05
2.44067e-05
2.44067e-05
2.44067e-05
2.44067e-05
2.44067e-05
2.44067e-05
2.44067e-05
2.44067e-05
2.44067e-05
2.44067e-05
2.44067e-05
2.44067e-05
2.44067e-05
2.44067e-05
2.44067e-05
2.44067e-05
2.44067e-05
2.44067e-05
2.44067e-05
2.44067e-05
2.44067e-05
2.44067e-05
2.44067e-05
2.44067e-05
2.44067e-05
2.44067e-05
2.44067e-05
2.44067e-05
2.44067e-05
2.44067e-05
2.44067e-05
2.44067e-05
2.44067e-05
2.44067e-05
2.44067e-05
2.44067e-05
2.44067e-05
2.44067e-05
2.44067e-05
2.44067e-05
)
;

boundaryField
{
    defaultFaces
    {
        type            empty;
    }
}


// ************************************************************************* //
