/*--------------------------------*- C++ -*----------------------------------*\
  =========                 |
  \\      /  F ield         | OpenFOAM: The Open Source CFD Toolbox
   \\    /   O peration     | Website:  https://openfoam.org
    \\  /    A nd           | Version:  11
     \\/     M anipulation  |
\*---------------------------------------------------------------------------*/
FoamFile
{
    format      ascii;
    class       volScalarField;
    location    "8";
    object      k;
}
// * * * * * * * * * * * * * * * * * * * * * * * * * * * * * * * * * * * * * //

dimensions      [0 2 -2 0 0 0 0];

internalField   nonuniform List<scalar> 
700
(
0.000192134
0.000192134
0.000192134
0.000192134
0.000192134
0.000192134
0.000192134
0.000192134
0.000192134
0.000192134
0.000192134
0.000192134
0.000192134
0.000192134
0.000192134
0.000192134
0.000192134
0.000192134
0.000192134
0.000192134
0.000192134
0.000192134
0.000192134
0.000192134
0.000192134
0.000192134
0.000192134
0.000192134
0.000192134
0.000192134
0.000192134
0.000192134
0.000192134
0.000192134
0.000192134
0.000192134
0.000192134
0.000192134
0.000192134
0.000192134
0.000192134
0.000192134
0.000192134
0.000192134
0.000192134
0.000192134
0.000192134
0.000192134
0.000192134
0.000192134
0.000192134
0.000192134
0.000192134
0.000192134
0.000192134
0.000192134
0.000192134
0.000192134
0.000192134
0.000192134
0.000192135
0.000192135
0.000192134
0.000192134
0.000192134
0.000192134
0.000192134
0.000192134
0.000192134
0.000192134
0.000192156
0.00019215
0.000192143
0.000192138
0.000192136
0.000192134
0.000192133
0.000192131
0.000192129
0.000192126
0.000192505
0.000192387
0.000192269
0.000192193
0.000192155
0.000192136
0.000192121
0.000192096
0.000192056
0.00019201
0.000196968
0.000195004
0.000193516
0.000192692
0.00019231
0.000192127
0.000191977
0.000191747
0.000191322
0.000190544
0.000214852
0.000204098
0.000197321
0.000194187
0.000192781
0.000192074
0.000191571
0.00019109
0.000190604
0.000190444
0.000209781
0.000204889
0.000199044
0.000195553
0.000193663
0.00019266
0.000192051
0.000191553
0.000191032
0.000190587
0.00020236
0.000202171
0.000198804
0.000196218
0.000194462
0.000193355
0.000192663
0.000192178
0.000191748
0.00019131
0.000193542
0.000196835
0.000196236
0.000195312
0.000194399
0.000193642
0.00019307
0.000192646
0.000192305
0.000191978
0.000184585
0.000189939
0.000191717
0.000192586
0.00019291
0.000192934
0.00019282
0.000192657
0.000192484
0.000192304
0.000176985
0.000183053
0.000186435
0.000188724
0.000190216
0.000191144
0.00019169
0.000191987
0.00019213
0.000192178
0.000172173
0.000178052
0.000182199
0.000185278
0.000187517
0.000189108
0.000190209
0.000190949
0.000191433
0.000191737
0.000171158
0.000176486
0.000180696
0.000183921
0.000186354
0.000188155
0.000189463
0.000190393
0.00019104
0.00019148
0.000174362
0.00017897
0.000182587
0.000185331
0.000187391
0.000188914
0.000190023
0.000190817
0.000191378
0.000191772
0.000182089
0.000184849
0.000186877
0.000188463
0.000189672
0.000190572
0.000191234
0.000191727
0.000192123
0.000192538
0.000189204
0.000189007
0.000189537
0.00019021
0.000190822
0.000191316
0.000191692
0.000191971
0.000192177
0.000192327
0.00019045
0.000190481
0.000190707
0.000191028
0.000191353
0.000191635
0.00019186
0.00019203
0.000192153
0.000192233
0.000191238
0.000191278
0.000191387
0.000191541
0.000191705
0.000191855
0.000191979
0.000192074
0.000192143
0.000192186
0.000191688
0.000191712
0.000191764
0.000191836
0.000191915
0.00019199
0.000192053
0.000192103
0.000192139
0.000192161
0.000191927
0.000191939
0.000191962
0.000191995
0.000192031
0.000192066
0.000192096
0.00019212
0.000192137
0.000192147
0.000192045
0.00019205
0.00019206
0.000192074
0.000192089
0.000192105
0.000192118
0.000192129
0.000192136
0.000192141
0.000192099
0.000192101
0.000192105
0.000192111
0.000192117
0.000192123
0.000192128
0.000192133
0.000192136
0.000192137
0.000192122
0.000192123
0.000192124
0.000192126
0.000192128
0.000192131
0.000192133
0.000192134
0.000192135
0.000192136
0.000192131
0.000192131
0.000192131
0.000192132
0.000192133
0.000192133
0.000192134
0.000192135
0.000192135
0.000192135
0.000192133
0.000192133
0.000192133
0.000192134
0.000192134
0.000192134
0.000192134
0.000192135
0.000192135
0.000192135
0.000192134
0.000192134
0.000192134
0.000192134
0.000192134
0.000192134
0.000192134
0.000192134
0.000192134
0.000192134
0.000192134
0.000192134
0.000192134
0.000192134
0.000192134
0.000192134
0.000192134
0.000192134
0.000192134
0.000192134
0.000192134
0.000192134
0.000192134
0.000192134
0.000192134
0.000192134
0.000192134
0.000192134
0.000192134
0.000192134
0.000192134
0.000192134
0.000192134
0.000192134
0.000192134
0.000192134
0.000192134
0.000192134
0.000192134
0.000192134
0.000192134
0.000192134
0.000192134
0.000192134
0.000192134
0.000192134
0.000192134
0.000192134
0.000192134
0.000192134
0.000192134
0.000192134
0.000192134
0.000192134
0.000192134
0.000192134
0.000192134
0.000192134
0.000192134
0.000192134
0.000192134
0.000192134
0.000192134
0.000192134
0.000192134
0.000192134
0.000192134
0.000192134
0.000192134
0.000192134
0.000192134
0.000192134
0.000192134
0.000192134
0.000192134
0.000192134
0.000192134
0.000192134
0.000192134
0.000192134
0.000192134
0.000192134
0.000192134
0.000192134
0.000192134
0.000192134
0.000192134
0.000192134
0.000192134
0.000192134
0.000192134
0.000192134
0.000192134
0.000192134
0.000192134
0.000192134
0.000192134
0.000192134
0.000192134
0.000192134
0.000192625
0.000192724
0.00019284
0.000192952
0.000193033
0.000193074
0.000193071
0.000193031
0.000192947
0.000192845
0.000192433
0.000192501
0.000192566
0.000192602
0.000192589
0.000192523
0.000192416
0.000192278
0.000192119
0.000191959
0.0001924
0.000192437
0.000192455
0.000192435
0.000192369
0.000192266
0.000192139
0.000191998
0.000191851
0.000191703
0.000192424
0.000192452
0.000192445
0.000192396
0.000192313
0.000192212
0.000192106
0.000192006
0.000191917
0.000191849
0.000192512
0.000192555
0.000192527
0.00019245
0.00019235
0.000192251
0.000192167
0.00019211
0.000192088
0.000192118
0.000192688
0.000192794
0.000192749
0.000192624
0.000192477
0.000192345
0.000192243
0.000192178
0.000192151
0.000192173
0.000192986
0.000193255
0.0001932
0.000192987
0.000192737
0.00019251
0.000192318
0.000192153
0.000192002
0.000191869
0.000193453
0.000194068
0.000194015
0.000193661
0.000193231
0.000192815
0.000192409
0.000191976
0.000191501
0.000191057
0.000194171
0.000195432
0.00019538
0.000194813
0.000194114
0.000193382
0.000192555
0.000191506
0.000190197
0.000189001
0.000194921
0.000197638
0.000197835
0.000197233
0.000196406
0.000195437
0.000194114
0.000191978
0.000188315
0.000182018
0.000192402
0.000192358
0.000192333
0.000192334
0.000192359
0.000192402
0.000192434
0.000192377
0.000192018
0.000190744
0.00019227
0.000192266
0.000192252
0.00019224
0.00019223
0.000192213
0.000192167
0.000192051
0.000191811
0.000191454
0.000192205
0.000192205
0.000192194
0.000192178
0.000192156
0.000192123
0.000192067
0.000191978
0.000191854
0.000191734
0.00019217
0.000192169
0.00019216
0.000192145
0.000192123
0.000192093
0.00019205
0.000191994
0.000191931
0.000191883
0.000192151
0.000192149
0.000192142
0.000192131
0.000192115
0.000192093
0.000192065
0.000192032
0.000192
0.000191979
0.000192142
0.00019214
0.000192135
0.000192128
0.000192117
0.000192103
0.000192086
0.000192068
0.000192052
0.000192042
0.000192138
0.000192136
0.000192133
0.000192129
0.000192122
0.000192114
0.000192105
0.000192095
0.000192087
0.000192082
0.000192136
0.000192135
0.000192133
0.000192131
0.000192127
0.000192123
0.000192118
0.000192113
0.000192109
0.000192106
0.000192135
0.000192134
0.000192133
0.000192132
0.00019213
0.000192128
0.000192126
0.000192123
0.000192121
0.00019212
0.000192134
0.000192134
0.000192134
0.000192133
0.000192132
0.000192131
0.000192129
0.000192128
0.000192127
0.000192126
0.000192134
0.000192134
0.000192134
0.000192134
0.000192134
0.000192134
0.000192134
0.000192134
0.000192134
0.000192134
0.000192134
0.000192134
0.000192134
0.000192134
0.000192134
0.000192134
0.000192134
0.000192134
0.000192134
0.000192134
0.000192134
0.000192134
0.000192134
0.000192134
0.000192134
0.000192134
0.000192134
0.000192134
0.000192134
0.000192134
0.000192134
0.000192134
0.000192134
0.000192134
0.000192134
0.000192134
0.000192134
0.000192134
0.000192134
0.000192134
0.000192134
0.000192134
0.000192134
0.000192134
0.000192134
0.000192134
0.000192134
0.000192134
0.000192134
0.000192134
0.000192134
0.000192134
0.000192134
0.000192134
0.000192134
0.000192134
0.000192134
0.000192134
0.000192134
0.000192134
0.000192134
0.000192134
0.000192134
0.000192134
0.000192134
0.000192134
0.000192134
0.000192134
0.000192134
0.000192134
0.000192134
0.000192134
0.000192134
0.000192134
0.000192134
0.000192134
0.000192134
0.000192134
0.000192134
0.000192134
0.000192134
0.000192134
0.000192134
0.000192134
0.000192134
0.000192134
0.000192134
0.000192134
0.000192134
0.000192134
0.000192134
0.000192134
0.000192134
0.000192134
0.000192134
0.000192134
0.000192134
0.000192134
0.000192134
0.000192134
)
;

boundaryField
{
    defaultFaces
    {
        type            empty;
    }
}


// ************************************************************************* //
