/*--------------------------------*- C++ -*----------------------------------*\
  =========                 |
  \\      /  F ield         | OpenFOAM: The Open Source CFD Toolbox
   \\    /   O peration     | Website:  https://openfoam.org
    \\  /    A nd           | Version:  11
     \\/     M anipulation  |
\*---------------------------------------------------------------------------*/
FoamFile
{
    format      ascii;
    class       volScalarField;
    location    "8";
    object      nut;
}
// * * * * * * * * * * * * * * * * * * * * * * * * * * * * * * * * * * * * * //

dimensions      [0 2 -1 0 0 0 0];

internalField   nonuniform List<scalar> 
700
(
0.000136126
0.000136126
0.000136126
0.000136126
0.000136126
0.000136126
0.000136126
0.000136126
0.000136126
0.000136126
0.000136126
0.000136126
0.000136126
0.000136126
0.000136126
0.000136126
0.000136126
0.000136126
0.000136126
0.000136126
0.000136126
0.000136126
0.000136126
0.000136126
0.000136126
0.000136126
0.000136126
0.000136126
0.000136126
0.000136126
0.000136126
0.000136126
0.000136126
0.000136126
0.000136126
0.000136126
0.000136126
0.000136126
0.000136126
0.000136126
0.000136126
0.000136126
0.000136126
0.000136126
0.000136126
0.000136126
0.000136126
0.000136126
0.000136126
0.000136126
0.000136126
0.000136126
0.000136126
0.000136126
0.000136126
0.000136126
0.000136126
0.000136126
0.000136126
0.000136126
0.000136127
0.000136127
0.000136127
0.000136126
0.000136126
0.000136126
0.000136126
0.000136126
0.000136126
0.000136126
0.000136145
0.00013614
0.000136134
0.00013613
0.000136128
0.000136126
0.000136125
0.000136124
0.000136122
0.00013612
0.000136434
0.000136341
0.000136244
0.000136179
0.000136145
0.000136128
0.000136114
0.000136092
0.00013606
0.000136025
0.000139897
0.00013843
0.000137275
0.000136607
0.000136281
0.000136118
0.000135987
0.000135799
0.000135474
0.000134907
0.000152921
0.000145173
0.000140189
0.000137798
0.000136676
0.00013609
0.000135678
0.0001353
0.000134932
0.000134803
0.000149247
0.000145738
0.000141474
0.000138855
0.000137384
0.000136572
0.000136068
0.000135662
0.000135257
0.000134915
0.000143721
0.00014364
0.000141236
0.000139335
0.000138004
0.000137134
0.000136571
0.000136167
0.000135815
0.000135468
0.000137135
0.00013957
0.000139209
0.000138575
0.000137915
0.000137346
0.000136898
0.000136554
0.00013627
0.000136001
0.000130492
0.000134379
0.000135732
0.000136422
0.000136702
0.000136747
0.000136675
0.000136554
0.000136417
0.00013627
0.000124906
0.000129264
0.00013174
0.000133446
0.000134581
0.000135306
0.000135744
0.00013599
0.000136114
0.000136158
0.000121403
0.000125591
0.000128582
0.000130833
0.000132498
0.000133702
0.000134554
0.000135139
0.000135531
0.000135784
0.000120686
0.000124464
0.00012748
0.000129819
0.00013161
0.00013296
0.00013396
0.000134686
0.000135202
0.000135562
0.000123033
0.000126299
0.000128889
0.000130881
0.0001324
0.000133544
0.000134392
0.000135008
0.000135449
0.000135757
0.000128629
0.000130595
0.000132063
0.00013323
0.000134137
0.000134823
0.000135329
0.000135698
0.000135983
0.000136302
0.000133774
0.00013365
0.000134052
0.000134565
0.000135037
0.000135422
0.000135715
0.000135929
0.000136081
0.000136191
0.000134738
0.000134771
0.000134951
0.000135204
0.000135462
0.000135688
0.000135868
0.000136002
0.000136097
0.000136159
0.000135364
0.0001354
0.00013549
0.000135616
0.000135751
0.000135875
0.000135977
0.000136055
0.000136111
0.000136146
0.000135734
0.000135755
0.0001358
0.000135862
0.000135929
0.000135993
0.000136047
0.000136089
0.000136119
0.000136138
0.000135937
0.000135948
0.000135969
0.000135998
0.00013603
0.000136061
0.000136088
0.000136109
0.000136124
0.000136133
0.000136042
0.000136047
0.000136056
0.000136069
0.000136083
0.000136097
0.00013611
0.000136119
0.000136126
0.00013613
0.000136092
0.000136094
0.000136098
0.000136103
0.000136109
0.000136115
0.00013612
0.000136124
0.000136127
0.000136129
0.000136114
0.000136115
0.000136116
0.000136118
0.00013612
0.000136123
0.000136125
0.000136126
0.000136127
0.000136128
0.000136123
0.000136123
0.000136123
0.000136124
0.000136125
0.000136125
0.000136126
0.000136127
0.000136127
0.000136127
0.000136125
0.000136125
0.000136126
0.000136126
0.000136126
0.000136126
0.000136127
0.000136127
0.000136127
0.000136127
0.000136126
0.000136126
0.000136126
0.000136126
0.000136126
0.000136126
0.000136126
0.000136126
0.000136126
0.000136126
0.000136126
0.000136126
0.000136126
0.000136126
0.000136126
0.000136126
0.000136126
0.000136126
0.000136126
0.000136126
0.000136126
0.000136126
0.000136126
0.000136126
0.000136126
0.000136126
0.000136126
0.000136126
0.000136126
0.000136126
0.000136126
0.000136126
0.000136126
0.000136126
0.000136126
0.000136126
0.000136126
0.000136126
0.000136126
0.000136126
0.000136126
0.000136126
0.000136126
0.000136126
0.000136126
0.000136126
0.000136126
0.000136126
0.000136126
0.000136126
0.000136126
0.000136126
0.000136126
0.000136126
0.000136126
0.000136126
0.000136126
0.000136126
0.000136126
0.000136126
0.000136126
0.000136126
0.000136126
0.000136126
0.000136126
0.000136126
0.000136126
0.000136126
0.000136126
0.000136126
0.000136126
0.000136126
0.000136126
0.000136126
0.000136126
0.000136126
0.000136126
0.000136126
0.000136126
0.000136126
0.000136126
0.000136126
0.000136126
0.000136126
0.000136126
0.000136126
0.000136126
0.000136126
0.000136126
0.000136126
0.000136126
0.000136126
0.000136126
0.000136126
0.000136126
0.000136126
0.000136126
0.000136126
0.000136126
0.000136126
0.000136437
0.000136514
0.000136607
0.0001367
0.000136769
0.000136804
0.000136801
0.000136775
0.000136702
0.000136609
0.000136292
0.000136325
0.000136358
0.000136377
0.000136366
0.000136322
0.000136247
0.000136147
0.000136024
0.000135901
0.000136299
0.000136308
0.000136304
0.00013628
0.000136231
0.000136161
0.000136073
0.000135971
0.00013586
0.000135746
0.000136343
0.000136353
0.000136337
0.000136296
0.000136235
0.000136162
0.000136085
0.000136007
0.000135936
0.000135879
0.000136428
0.000136456
0.000136432
0.000136372
0.000136296
0.000136219
0.000136152
0.000136105
0.000136086
0.000136109
0.000136573
0.000136655
0.000136624
0.000136528
0.000136413
0.000136307
0.000136223
0.000136166
0.000136142
0.000136161
0.000136803
0.000137013
0.00013698
0.000136821
0.000136627
0.000136444
0.000136285
0.000136144
0.000136017
0.00013591
0.000137152
0.000137621
0.000137598
0.00013734
0.000137012
0.000136682
0.000136352
0.000135998
0.000135617
0.000135276
0.000137676
0.000138616
0.000138603
0.000138197
0.000137672
0.000137104
0.000136452
0.000135631
0.000134639
0.000133768
0.000138215
0.000140197
0.000140367
0.000139937
0.000139317
0.000138568
0.000137543
0.00013593
0.000133263
0.000128803
0.000136259
0.000136251
0.000136259
0.000136278
0.000136311
0.000136353
0.000136386
0.000136355
0.000136107
0.000135208
0.000136193
0.000136204
0.000136206
0.000136208
0.000136209
0.000136203
0.000136176
0.000136099
0.000135932
0.000135681
0.000136165
0.00013617
0.000136168
0.000136161
0.000136149
0.000136128
0.000136091
0.000136029
0.000135942
0.000135858
0.000136148
0.000136149
0.000136145
0.000136135
0.000136121
0.000136099
0.000136069
0.000136029
0.000135985
0.000135951
0.000136137
0.000136137
0.000136132
0.000136124
0.000136112
0.000136096
0.000136075
0.000136051
0.000136028
0.000136012
0.000136132
0.000136131
0.000136127
0.000136121
0.000136113
0.000136102
0.000136089
0.000136075
0.000136063
0.000136055
0.000136129
0.000136128
0.000136126
0.000136122
0.000136117
0.00013611
0.000136103
0.000136095
0.000136088
0.000136084
0.000136128
0.000136127
0.000136126
0.000136123
0.00013612
0.000136117
0.000136113
0.000136109
0.000136105
0.000136103
0.000136127
0.000136127
0.000136126
0.000136125
0.000136123
0.000136121
0.000136119
0.000136117
0.000136115
0.000136114
0.000136127
0.000136126
0.000136126
0.000136125
0.000136124
0.000136123
0.000136122
0.000136121
0.00013612
0.000136119
0.000136126
0.000136126
0.000136126
0.000136126
0.000136126
0.000136126
0.000136126
0.000136126
0.000136126
0.000136126
0.000136126
0.000136126
0.000136126
0.000136126
0.000136126
0.000136126
0.000136126
0.000136126
0.000136126
0.000136126
0.000136126
0.000136126
0.000136126
0.000136126
0.000136126
0.000136126
0.000136126
0.000136126
0.000136126
0.000136126
0.000136126
0.000136126
0.000136126
0.000136126
0.000136126
0.000136126
0.000136126
0.000136126
0.000136126
0.000136126
0.000136126
0.000136126
0.000136126
0.000136126
0.000136126
0.000136126
0.000136126
0.000136126
0.000136126
0.000136126
0.000136126
0.000136126
0.000136126
0.000136126
0.000136126
0.000136126
0.000136126
0.000136126
0.000136126
0.000136126
0.000136126
0.000136126
0.000136126
0.000136126
0.000136126
0.000136126
0.000136126
0.000136126
0.000136126
0.000136126
0.000136126
0.000136126
0.000136126
0.000136126
0.000136126
0.000136126
0.000136126
0.000136126
0.000136126
0.000136126
0.000136126
0.000136126
0.000136126
0.000136126
0.000136126
0.000136126
0.000136126
0.000136126
0.000136126
0.000136126
0.000136126
0.000136126
0.000136126
0.000136126
0.000136126
0.000136126
0.000136126
0.000136126
0.000136126
0.000136126
)
;

boundaryField
{
    defaultFaces
    {
        type            empty;
    }
}


// ************************************************************************* //
