/*--------------------------------*- C++ -*----------------------------------*\
  =========                 |
  \\      /  F ield         | OpenFOAM: The Open Source CFD Toolbox
   \\    /   O peration     | Website:  https://openfoam.org
    \\  /    A nd           | Version:  11
     \\/     M anipulation  |
\*---------------------------------------------------------------------------*/
FoamFile
{
    format      ascii;
    class       volScalarField;
    location    "1.4";
    object      gradTz;
}
// * * * * * * * * * * * * * * * * * * * * * * * * * * * * * * * * * * * * * //

dimensions      [0 -1 0 1 0 0 0];

internalField   nonuniform List<scalar> 
5712
(
7810.8
25624.3
6218.49
26262.5
4646.34
27085.8
7284.4
41509.3
8941.55
57006.2
8904.67
41665.2
8618.9
34664
8961.27
31019.7
5421.55
3402.9
14510.8
8669.01
5282.11
2862.05
15763.6
7833.87
5985.86
4407.73
19159.4
13652.8
4530.55
3330.65
18835.6
13846.3
10644.7
4529.39
9242.11
4152.27
4305.85
10005.8
36257.1
9777.12
13012.4
4320.66
46452.1
12534.3
12075.8
4066.36
26052
8053.47
13390.1
4623.91
22793.3
7221.32
6985.73
3464.16
9801.4
3857.55
7572.08
4082.45
9535.37
3702.54
9470.48
5424.11
8220.86
3617.99
11930.8
4323.35
4082.88
1436.31
13613
9569.82
8317.23
6141.71
14788.6
12206.7
8028.59
6945.98
8041.78
5550.05
11570.1
7924.53
5405.23
3997.51
2651.87
2184.69
5104.22
4405.63
2530.04
2457.35
5286.23
3525.6
2631.9
1704.23
7300.26
4004.14
5582.24
6633.99
10172.9
7259.64
8231.05
11472.3
4754.36
2276.91
3247.99
3760.11
2305.06
972.231
1365.15
1378.55
9508.92
16978.3
6394.42
18884.6
11048.4
16571.9
7818.75
19669.3
12423.3
14918.6
9968.41
19031
13767.8
15829.3
10880
10628.5
11494.7
15886.6
15299.7
15578.9
16270.5
23188.8
12932.8
10439.2
9383.37
10577.6
16215.2
19781.3
17783.6
22862.2
22166
18118.6
16889.9
22510.6
21646.9
15652.8
15372.8
21020.6
20785.9
11705.7
9326.54
11483.3
10215.1
12819.8
11790.4
14034.5
13750.9
19161.9
19924.4
10890.2
9656.36
10854.4
10857.8
11504.7
12653.5
13083.7
15134.6
16975.8
20130.5
9125.95
7195.67
6178.58
7761.45
11911.3
14299
8175.2
12794.7
5395.3
6969.18
8147.34
6772.92
1557.56
5104.71
721.321
1783.02
4131.22
8511.68
1444.31
2885.34
868.013
4436.51
401.956
1519.46
5384.47
5447.62
6137.36
3926.42
8605.33
6986.29
10119
7152.27
1381.98
2977.54
3056.49
1811.07
1635.53
2099.93
2297.86
1744.03
14303.2
8754.41
2787.86
16125.2
9338.2
3071.64
13736.1
8665.72
2953.95
15833.2
9342
3070.59
12629.8
7973.38
2637.65
15393
9359.24
3137.71
6335.56
3602.49
1032.42
8423.45
5601.33
1935.14
10265.5
7078.22
2442.87
12008.1
7844.04
2617.43
15198.8
9575.67
3343.31
7378.83
4327.57
1433.19
8134.03
5900.64
2241.47
9843.47
7269.53
2692.03
12224.5
8616.45
3105.18
15403.6
9737.72
3480.05
290.626
2041.96
2872.58
4159.45
2296.28
2613.01
5735.83
5420.62
601.427
1002.94
641.794
1043.82
472.981
1384.1
852.516
1816.13
3166.48
1553.34
4037.89
2348.26
2118.4
3680.93
3402.77
739.534
6323.11
1392.61
-2185.73
426.26
1642.02
1102.47
1045.06
840.104
9522.56
4169.49
2586.7
1542.68
9674.76
4321.56
3269.62
1955.28
9555.63
4632.62
4696.58
3159.73
3321.89
2299.27
1446.81
1381.27
12860.1
11368.4
5998.1
6195.42
14175.6
13253.1
6950.71
6976.18
5178.42
5300.67
10796.3
8929.8
3493.37
3670.36
1828.25
2147.43
4207.01
4179.07
2190.53
2385.6
2935.65
3198.61
1518.86
1983.08
4483.94
2974.11
4426.39
2955.57
7073.02
3928.72
6652.09
4113.99
2609.66
2115.96
2759.63
1877.87
1336
1254.71
1708.3
1069.74
11100.6
7317.09
5338.66
5163.66
11072.4
7569.64
5356.84
5143.18
11581.7
8037.57
5433.94
5034.57
14115.9
15626.5
12564.2
8156.54
4349.04
14820.9
13302.9
11993.6
9582.08
5762.9
13857.1
12196
9487.64
7057.65
4119.63
5835.01
4911.98
5235.67
5682.15
6149.21
4940.78
5347.46
5677.34
6639.68
5139.02
5498.83
5719.14
11178.7
7954.35
10055
6961.03
7622.35
6040.87
6836.43
5663.57
5168.92
5764.63
9307.42
8113.87
7958.99
6899.27
6541.55
5830.69
5490.17
5289.88
4033.6
5468.82
7103.73
4826.65
4693.13
2869.15
9550.01
7379.21
6586.59
5361.83
3696.03
2223.81
5388.33
3933.3
4662.47
2223.39
1626.39
925.474
5064.58
3696.37
1683.98
1403.88
3921.52
1732.2
1475.51
758.166
2898.28
2579.29
2356.44
3361.6
4057.55
3698.2
2996.12
4269.23
2970.58
1843.7
1731.09
2303.77
831.677
379.329
81.8731
366.916
3323.49
1393.24
412.333
3706.3
979.565
262.57
3445.49
1537.88
473.368
3748.92
1034.91
291.35
3376.93
1600.68
422.003
3767.84
1080.24
258.986
5024.29
2650.47
649.781
4251.81
2110.82
530.773
3891
1893.61
525.902
3613.49
1703.63
382.087
3827.53
1087.22
175.106
6205
3222.75
914.677
5273.64
2654.56
749.527
4532.19
2252.87
662.713
4031.75
1755.8
446.818
4168.02
1035.7
258.381
1560.51
543.985
123.162
-104.202
651.157
237.525
68.1349
-16.4636
1646.7
591.057
162.642
-55.2261
821.52
322.851
153.302
68.5089
1756.02
649.423
234.46
25.6515
1378.95
599.27
207.408
38.8017
1014.54
524.502
139.406
-32.1987
895.698
540.464
271.073
140.677
1421.65
594.99
163.146
-116.315
1195.23
492.909
203.896
-104.552
1697.54
632.71
206.695
-60.8714
1514.24
565.056
222.717
-167.602
1110.41
530.073
184.155
-42.8982
895.948
418.293
206.246
1.49434
780.968
440.458
231.472
125.984
591.333
334.417
203.349
106.553
1960.63
656.016
135.045
-214.53
1894.15
599.84
193.016
-286.514
1956.1
662.579
147.569
-205.4
1836.9
582.765
197.051
-279.239
1914.84
660.238
207.507
-133.075
1720.26
550.147
230.099
-219.92
1676.1
604.635
266.004
17.2162
1885.97
611.917
311.051
-253.212
1477.95
532.968
257.5
-51.5018
1460.69
418.542
166.081
-183.722
572.229
151.306
44.5866
-33.1032
1522.36
447.669
179.243
-174.269
602.021
164.039
54.3386
-23.675
1570.54
480.276
211.435
-148.861
623.166
178.723
66.1159
-12.8656
1425.24
451.418
236.622
-111.525
612.652
184.507
87.4645
6.3531
1309.3
444.744
244.914
-55.9512
556.212
193.157
114.034
31.1722
889.262
339.892
155.332
-20.1356
514.822
237.031
129.962
62.4095
1041.6
357.449
176.985
-44.7581
528.892
214.312
123.545
47.9253
700.596
314.055
155.297
19.9004
445.851
236.858
131.826
76.1183
474.408
268.974
164.715
90.683
353.058
222.633
138.698
94.8315
-9.01887
3.32075
3.10879
1.90945
1.28957
-1.1263
2.29092
1.73793
1.03328
0.692388
5.51304
10.0795
6.44312
3.67891
2.43959
14.6593
9.99765
5.62621
3.11335
2.0474
20.3627
17.9204
10.467
5.84866
3.85712
56.1584
33.4532
18.0394
9.86968
6.47497
65.0474
38.6741
20.9378
11.5034
7.56707
94.8466
51.0302
26.8331
14.6375
9.62182
33.546
25.9573
14.7502
8.20151
5.41255
36.4588
24.51
13.5557
7.49658
4.9415
23.5214
20.7525
11.9123
6.62104
4.36189
45.0577
25.9867
13.7017
7.45395
4.88019
43.1892
30.6036
17.224
9.57599
6.32484
49.0751
29.1684
15.7877
8.68991
5.72662
75.1313
40.9743
21.6166
11.8079
7.76715
62.892
33.8111
17.8087
9.73194
6.40526
-17.4306
1.51051
2.27564
1.45783
0.99289
-9.66983
0.392278
0.857106
0.555731
0.378749
-7.89149
5.78102
4.33326
2.53791
1.6915
-6.2098
1.94047
1.59535
0.940772
0.62685
3.76143
10.5244
6.54225
3.69178
2.43728
7.09957
7.10898
3.99466
2.18676
1.43003
29.9676
20.7465
11.2524
6.12472
3.99814
20.6193
13.3794
7.06868
3.81674
2.48401
56.4519
28.009
14.1763
7.57922
4.92818
2066.15
4700.55
2127.86
4677.08
2372.09
4666.54
2811.1
4843.9
2897.45
4950.26
1221.8
1781.67
1942.59
2973.81
673.48
896.657
243.128
303.409
10574
2537.01
584.535
131.344
32.8689
2896.52
782.414
208.862
47.753
10.4673
10406.2
2477.99
570.656
127.207
32.0782
2951.84
871.735
215.736
50.4215
12.6089
9857.82
2333.41
535.795
119.363
30.1537
2865.17
841.62
207.662
48.2866
12.1196
8930.92
2097.69
480.682
107.083
27.0805
2771.9
796.978
194.17
44.7638
11.1802
7383.87
1727.24
396.361
88.4894
22.4243
2596.51
726.959
175.314
40.1878
10.0142
3416.25
836.454
195.518
44.0347
11.1954
1262.6
359.095
86.0323
19.4032
4.82781
5141.85
1240.96
287.66
64.4283
16.3415
1858.12
521.527
125.866
28.8415
7.23646
1992.05
491.597
115.487
26.149
6.66486
709.784
209.664
50.0361
11.29
2.83605
686.882
168.659
39.7476
9.0373
2.30646
281.986
76.5785
17.1236
4.76067
0.955577
-186.338
306.936
4746.09
-1034.65
778.644
834.383
2432.96
3121.36
1975.72
3708.92
3154.95
4866.24
3837.35
4759.1
1982.76
2666.52
2096.15
2487.65
1088.4
1131.73
2302.98
1622.01
642.533
-242.156
-519.135
-615.837
-52.9193
13727.9
3845.69
4745.06
3287.57
165.899
291.481
3253.88
-953.426
-400.679
-668.507
-375.249
7500.43
4095.05
1717.04
1296.77
3777.97
2229.94
783.192
1496.3
-1098.43
-518.816
913.821
777.215
8905.5
4300.85
5575.44
2950.25
4082.93
4828.02
1701.46
-549.041
1172.07
1577.03
1238.2
1021.83
870.947
620.024
1256.45
985.896
748.366
510.375
212.665
560.271
459.377
342.023
212.951
72.9588
-216.15
-180.13
-134.14
-82.2288
-27.6504
-463.011
-385.757
-287.553
-176.582
-59.4241
-550.062
-459.127
-342.947
-210.985
-71.0794
-44.7244
-33.1228
-19.8503
-8.76384
-2.0639
9630.19
7924.61
6355.58
5364.28
4539.15
3190.5
2595.56
2215.42
1697.1
832.444
3571.59
2748.38
2164.06
1566.01
752.147
2450.74
1852.09
1478.83
1054.48
419.18
212.297
169.723
205.125
173.217
76.4623
317.68
321.181
288.452
209.315
80.346
2694.12
2166.45
1628.55
1077.03
421.422
-534.795
-225.49
-62.4324
11.7663
15.5953
-307.427
-205.391
-111.251
-43.5195
-7.97803
-441.924
-248.114
-106.55
-26.9607
-0.495711
-343.265
-286.878
-210.037
-125.073
-40.7207
5374.34
4613.56
3765.29
3218.28
2731.32
3109.78
2387.69
1871.56
1327.06
600.84
1519.54
1292.56
1020.7
684.958
256.815
1118.6
924.129
708.31
462.325
168.64
3112.84
2460.28
1818.47
1166.32
433.622
1941.75
1606.79
1222.52
785.576
277.963
674.851
553.177
417.517
266.655
94.4356
1304.28
1072.29
803.277
504.568
174.593
-948.642
-761.362
-546.762
-325.669
-107.501
-456.483
-371.874
-268.581
-159.24
-52.1107
797.938
662.751
506.84
327.417
116.8
682.297
569.155
435.854
280.604
99.1651
5640.34
3970.29
3228.27
2749.31
2200.66
3232.23
2453.37
1828.78
1246.87
535.044
4024.96
3186.41
2455.89
1792.28
821.705
2324.36
1846.68
1389.02
933.661
386.784
3430.86
2753.79
2051.05
1310.18
473.325
3626.49
2644.82
2031.57
1422.22
567.368
1470.37
1200.78
897.176
564.84
196.673
-487.645
-402.437
-295.335
-177.999
-58.9854
1014.04
837.966
641.045
416.296
149.514
-30553
-49681.8
-25380.2
-40174.7
-27000.4
-55985.4
-32271.1
-71141.5
-19433.6
-13380.5
-21685.1
-13626.7
-17839.1
-11530.3
-21917.6
-11672.3
-25467.2
-19344.6
-36838.2
-26719.3
-21904.1
-17604.2
-30734.7
-23239.9
-17450.4
-17971.1
-14384.6
-13954.4
-17069
-15923.8
-41809.8
-11548.6
-16079.5
-6056.59
-50873.7
-14165.5
-14365.4
-5440.54
-31278
-9851.97
-16467.2
-6341.46
-27935.7
-8661.93
-13334.2
-5389.53
-16840.5
-6123.06
-12682.1
-5603.74
-14622.7
-5317.16
-13123.5
-6418.73
-11685.7
-4666.35
-14840.8
-5263.33
-5196.6
-1831.3
-11194.8
-7617.1
-9659.49
-6008.93
-9786.33
-7960.8
-8434.49
-6073.87
-9875.77
-5768.57
-11611.8
-7450.3
-6634.79
-4045.61
-3583.81
-2257.49
-5730.22
-4000.69
-3024.81
-2192.91
-6755.87
-3773.54
-3720.07
-1926.19
-8749.89
-4464.23
-5786.26
-6626.88
-11158.7
-7530.16
-8186.65
-11233.5
-5911.55
-2661.84
-3465.65
-3810.79
-3168.47
-1279.06
-1560.01
-1440.56
-13262
-16286.1
-7521.38
-18511
-13789.1
-15538.4
-8643.93
-18914.2
-13926.5
-14116.9
-10297.5
-17966
-9427.39
-7568.86
-10441.7
-11631.6
-11620.9
-10276
-12031.5
-14108
-15322.4
-21739.6
-7181.25
-7556.7
-8296.84
-10018.5
-15442.2
-15554.5
-10881.3
-19795.1
-15288.5
-14422.2
-10705.1
-19504.8
-15236.5
-12760.4
-10032.5
-18209.4
-15103.7
-8394.96
-6688.14
-8894.17
-7168.25
-10021.8
-8204.27
-11080.9
-9497.58
-16572.4
-15199.6
-7840.55
-6837.12
-8120.26
-7257.78
-9071.77
-8707.66
-10941.4
-11058.5
-15193.4
-15853
-7288.08
-5821.92
-5366.67
-6869.83
-8862.44
-11951.6
-6710.25
-11058.7
-5012.99
-6458.79
-7154.09
-5864.79
-1149.03
-4550.69
-414.055
-1400.21
-3322.16
-7578.44
-852.28
-2204.89
-699.014
-4129.89
-281.547
-1310.42
-5177.42
-5113.05
-5950.48
-3651.89
-8008.72
-6269.57
-9632.69
-6420.13
-1299.17
-2793.43
-2958.37
-1664.63
-1584.82
-1977.76
-2231.65
-1643.89
-6627.87
-2279.67
-8984.49
-3060.73
-6778
-2383.43
-9199.67
-3296.81
-6735.39
-2349.53
-9726.24
-3734.74
-3983.03
-1149.47
-5061.02
-1924.04
-5812.87
-2241.4
-7052.24
-2655.73
-10289.1
-4078.45
-4990.83
-1557.39
-4815.26
-2315.08
-5886.51
-2732.98
-7868.06
-3391.25
-10740.6
-4051.85
-6730.52
-6276.94
-5227.38
-5072.84
-11306.9
-8659.56
-9283.55
-7683.19
-4422.22
-3680.96
-1832.37
-1274.77
-4212.62
-3918.65
-1740.87
-1748.53
-3366.69
-4955.96
-3907.87
-5336.95
-3973.58
-2811.12
-3707.22
-853.346
-7520.57
-2172.49
2327.18
29.9113
-1265.34
-635.002
-104.214
268.832
-2378.7
-1532.4
-908.942
-494.31
-2578.16
-1642.28
-1416.91
-618.463
-2931.74
-1995.1
-2018.68
-952.963
-1502.44
-321.876
280.639
754.511
-5477.19
-5826.34
-4321.67
-3992.86
-7507.06
-7495.46
-6287.84
-5278.32
-2799.93
-3013.01
-4023.83
-4524.96
-2718.76
-2335.26
-1260.06
-1129.11
-4116
-3245.03
-2157.44
-1714.09
-1582.31
-1666.86
-455.221
-748.472
-1785
-1133.56
-2420.1
-1584.4
-2627.08
-1892.95
-3636.91
-2528.32
-779.012
-445.016
-1263.5
-659.662
193.831
355.485
-428.364
73.2232
-3326.2
-3994.68
-2588.58
-3651.54
-3323.04
-4052.93
-2649.76
-3645.16
-3579.72
-3849.57
-2814.69
-3477.17
-3215.44
-5325.96
-2618.35
-2082.89
-1949.77
-7844.85
-5448.72
-4713.92
-4481.09
-4044.69
-6322.48
-5147.04
-4135.65
-3573.43
-2483.24
-4536.17
-4371.89
-5444.92
-8319.41
-4382.21
-4000
-5247.06
-7959.77
-4170.71
-3857.87
-4870.74
-7388.75
-7490.22
-5723.44
-6499.77
-4877.04
-5361.85
-4158.68
-5055.16
-4459.76
-4563.29
-6829.45
-6065.16
-5670.08
-4921.58
-4821.23
-4126.96
-4209.09
-3873.55
-4418.35
-3102.33
-5865.71
-4049.95
-2882.43
-2850.74
-1183
-6044.35
-5243.26
-4716.51
-3562.62
-2074.84
-772.44
-3059.84
-2350.02
-3377.1
-1137.72
-603.251
-24.8843
-3907.8
-2617.52
-827.624
-535.772
-2676.81
-757.409
-405.14
80.7153
-1670.92
-1585.62
-1604.79
-2936.86
-2528.22
-2679.31
-2244.31
-4045.19
-1903.12
-1091.46
-935.576
-1829.16
171.544
328.769
741.765
177.099
-3089.07
-904.845
-5523.53
-508.334
-2933.23
-992.52
-5393.36
-531.445
-2353.17
-633.928
-4909.47
-385.276
-3186.31
-759.557
-2769.46
-675.124
-2753.62
-840.982
-2604.94
-499.07
-4620.89
-544.156
-4279.41
-902.825
-3681.03
-628.403
-3426.63
-671.767
-3460.18
-501.918
-4858.2
-583.178
-664.114
-169
71.6705
233.673
-232.435
-52.8748
24.0903
69.4941
-666.198
-150.701
74.2095
210.995
-184.699
-9.37666
7.51746
21.0866
-694.566
-130.755
56.2817
164.912
-109.383
106.766
210.119
223.914
338.065
288.211
353.841
334.578
714.182
468.68
337.049
221.165
-357.929
18.6856
219.545
374.948
-284.102
68.6148
152.344
359.899
-740.067
-120.247
104.019
282.8
-570.222
-20.4208
119.28
442.522
17.2077
164.273
241.298
310.569
-16.3073
150.777
161.975
251.585
397.519
309.886
238.719
170.496
275.386
240.164
175.613
153.691
-1015.31
-259.735
81.2773
386.966
-1224.1
-286.755
-35.0836
472.108
-980.404
-234.592
92.1212
395.024
-1180.96
-268.484
-33.9589
468.332
-921.863
-195.557
47.3342
325.741
-1081.38
-233.733
-63.1471
415.687
-629.918
-84.6584
30.5543
206.448
-1128.59
-214.488
-87.11
510.955
-584.355
-39.295
52.8228
325.609
-1108.6
-212.752
-62.5189
321.059
-476.806
-80.1628
0.931858
77.6351
-1042.54
-189.363
-50.8107
322.957
-456.021
-72.6066
1.57462
74.928
-906.679
-142.667
-51.0265
310.813
-393.197
-52.9167
9.2778
77.9759
-754.98
-101.691
-68.225
273.541
-326.755
-32.849
4.04402
71.9955
-569.16
-37.9105
-32.7731
230.808
-178.556
13.3442
8.08508
68.0706
-280.699
55.185
104.45
229.629
44.8304
119.36
94.7009
107.238
-474.524
-13.6837
37.9474
229.606
-38.0596
72.4103
51.2394
87.6928
-38.8154
132.974
142.283
208.417
134.273
159.733
126.668
116.422
212.165
204.785
151.327
146.551
235.047
194.791
135.781
107.656
49.1236
12.6988
4.37354
2.01025
1.2556
20.3941
5.99963
2.23627
1.06557
0.673684
55.5034
17.652
7.25643
3.64023
2.34214
30.534
12.337
5.72551
3.00634
1.96158
67.5625
24.4205
10.9484
5.68741
3.69981
77.8764
35.529
17.6129
9.46627
6.21756
87.7873
41.5795
20.8708
11.243
7.38302
96.9718
50.895
26.5349
14.4569
9.5152
81.6428
32.0328
15.0698
7.95435
5.19097
68.9271
28.2182
13.5264
7.17542
4.68955
73.7739
26.5398
12.1563
6.37508
4.15819
59.3208
25.7823
12.8287
6.90317
4.53881
87.5854
36.9352
17.7936
9.453
6.17903
69.3741
31.7738
15.7956
8.47421
5.55256
80.9727
41.5281
21.5149
11.7001
7.69641
67.284
34.3566
17.7542
9.64344
6.33993
54.6371
11.5195
3.58264
1.57836
0.972645
25.6755
4.72686
1.39947
0.608937
0.374446
57.5644
14.3585
5.30732
2.56595
1.63397
26.6969
5.736
2.01861
0.96489
0.613414
58.1582
17.0269
7.11454
3.62246
2.34575
28.3298
8.91632
4.01067
2.11033
1.38131
62.6829
23.2944
11.0612
5.90603
3.88457
36.5539
13.7298
6.67123
3.59052
2.36859
50.1907
24.935
12.9463
7.09048
4.69221
-2050.67
-3928.14
-2127.66
-3948.82
-2348.28
-4000.6
-2607.38
-4130.1
-2542.02
-4162.79
-1063.07
-1582.75
-1699.01
-2584.89
-557.636
-777.226
-149.383
-217.74
-10202.6
-2438.16
-560.597
-125.846
-31.4906
-2756.46
-749.922
-200.255
-45.7505
-10.0256
-10011.8
-2377.71
-546.933
-121.879
-30.7449
-2812.04
-835.456
-206.718
-48.2852
-12.0736
-9438.98
-2234.22
-513.243
-114.414
-28.9308
-2723.08
-804.556
-198.634
-46.1981
-11.6007
-8524.13
-2007.38
-460.859
-102.819
-26.0408
-2614.39
-758.326
-185.248
-42.7744
-10.6972
-7067.16
-1658.63
-381.449
-85.3002
-21.6509
-2429.32
-689.234
-167.033
-38.3994
-9.58799
-3332.44
-815.131
-190.437
-42.8897
-10.9086
-1178.84
-338.019
-81.2443
-18.3678
-4.57966
-4970.22
-1200.36
-278.483
-62.4303
-15.8535
-1732.52
-492.806
-119.585
-27.4978
-6.91746
-1950.82
-480.724
-112.766
-25.5117
-6.4998
-655.819
-194.773
-46.4161
-10.4729
-2.63261
-662.417
-162.147
-38.0627
-8.62935
-2.19769
-243.115
-65.2005
-14.1866
-4.06479
-0.777172
-254.234
-1522.23
-6209.79
472.008
-7070.22
-3121.86
-6869.38
-3212.12
-12571.1
-6717.57
-14052.4
-7432.82
-104.391
-366.624
-570.688
-672.628
-591.668
-167.513
-171.751
-585.505
-889.57
-996.353
-809.656
-239.235
-85.9379
-88.4668
-287.094
-286.133
-406.938
-404.403
-386.034
-377.041
-331.792
-344.529
-217.811
-238.323
853.283
2077.11
3377.1
2402.26
2174.36
994.235
745.711
2064.57
3375.67
3945.75
3290.97
1450.06
-93.9829
-79.279
-59.9398
-37.2804
-12.6448
-330.46
-279.173
-211.411
-131.666
-44.693
-514.276
-434.35
-328.845
-204.771
-69.502
-605.891
-511.476
-387.047
-240.92
-81.755
-533.111
-450.122
-340.616
-211.982
-71.9222
-153.975
-132.569
-101.758
-63.7434
-21.6496
-154.476
-130.159
-98.2977
-61.086
-20.7103
-527.195
-444.832
-336.464
-209.367
-71.0363
-800.513
-675.017
-510.283
-317.409
-107.676
-895.63
-754.311
-569.61
-354.056
-120.07
-727.005
-611.561
-461.332
-286.563
-97.1555
-216.365
-183.337
-139.07
-86.624
-29.3873
-77.4436
-65.4026
-49.5066
-30.8199
-10.4588
-79.7716
-67.4199
-51.0739
-31.8159
-10.8006
-258.941
-218.921
-165.91
-103.389
-35.1051
-258.126
-218.285
-165.467
-103.132
-35.0217
-366.971
-310.192
-235.031
-146.439
-49.7181
-364.628
-308.152
-233.44
-145.425
-49.37
-348.204
-294.393
-223.088
-139
-47.1909
-339.732
-286.877
-217.136
-135.174
-45.8721
-299.509
-253.366
-192.013
-119.592
-40.5845
-310.004
-261.31
-197.403
-122.689
-41.5958
-197.88
-168.309
-127.891
-79.6179
-26.9745
-214.52
-180.78
-136.408
-84.6311
-28.6525
752.386
621.684
463.031
286.231
97.1178
1821.84
1499.64
1115.84
691.293
235.547
2922.52
2384.13
1770.97
1104.54
381.451
2062.66
1677.3
1248.83
782.838
271.415
1898.3
1548.08
1147.9
709.428
231.133
896.285
746.748
562.403
349.449
111.494
658.545
544.84
406.004
250.881
85.0564
1817.42
1500.12
1117.17
691.198
234.871
2949.86
2421.15
1799.36
1115.55
380.834
3421.52
2792.62
2072.23
1288.17
442.116
2851.94
2325.73
1725.85
1073.37
367.257
1269.44
1045.82
783.257
490.081
167.723
177.632
442.702
651.412
758.867
682.916
273.469
277.972
694.163
999.238
1099.15
893.67
300.363
141.726
134.866
344.378
335.13
464.959
455.386
440.721
422.278
391.771
356.169
333.076
280.114
-723.701
-1882.8
-3044.77
-1967.1
-1667.96
-454.126
-692.34
-1982.6
-3197.08
-3627.7
-2837.33
-911.589
160.442
135.89
103.186
64.4066
21.8893
399.528
338.048
256.418
159.914
54.3228
587.641
496.967
376.778
234.888
79.7759
684.384
578.592
438.522
273.314
92.815
616.326
521.449
395.458
246.564
83.7424
250.596
215.375
165.411
103.869
35.361
250.912
212.36
161.137
100.526
34.1555
625.917
529.06
400.915
249.85
84.8435
900.288
760.285
575.645
358.525
121.711
989.325
834.565
631.273
392.921
133.351
803.726
677.429
512.065
318.602
108.116
272.131
231.158
175.854
109.825
37.3184
128.047
108.49
82.4058
51.4482
17.4873
121.853
103.244
78.4226
48.9613
16.6419
310.931
263.22
199.759
124.626
42.3436
302.597
256.179
194.425
121.302
41.2146
419.684
355.163
269.441
168.052
57.0893
410.969
347.712
263.728
164.459
55.8634
397.955
336.909
255.677
159.498
54.1875
380.939
322.148
244.216
152.231
51.6984
354.304
300.43
228.278
142.5
48.4216
321.226
271.554
205.769
128.209
43.5284
303.081
258.567
197.357
123.456
41.9644
253.114
214.356
162.613
101.35
34.4034
-634.589
-521.122
-386.069
-237.916
-80.6557
-1645.54
-1349.44
-1001.18
-619.553
-211.185
-2618.7
-2122.79
-1569.62
-977.748
-338.356
-1652.32
-1312.66
-958.239
-593.839
-205.224
-1414.13
-1113.41
-797.295
-477.711
-148.06
-377.635
-278.874
-183.047
-97.4115
-21.0626
-610.271
-503.878
-374.858
-231.438
-78.4551
-1743.57
-1437.75
-1070.01
-661.929
-224.982
-2787.09
-2281.68
-1692.27
-1048.22
-357.904
-3127.41
-2536.45
-1872.04
-1160.22
-397.989
-2428.15
-1952.76
-1431.08
-882.767
-300.817
-764.109
-598.901
-428.242
-259.404
-87.0617
-1598.38
-1012.29
-371.39
470.655
760.156
960.352
385.513
-11397.5
-2029.23
-3421.99
-1610.47
118.367
-3927.84
676.705
2234.46
1002.97
-6230.46
-2939.34
-710.488
-711.85
-3398.49
-1439.17
-389.204
-1096.23
1823.91
1058.45
-602.442
-310.2
-8024.94
-3694.17
-4533.49
-2226.2
-3530.84
-3643.46
-1212.32
1057.78
-566.958
-818.924
-528.059
-413.733
-438.728
-444.203
-649.005
-423.82
-280.503
-189.687
-92.1625
-312.485
-246.511
-178.075
-109.514
-37.6235
425.966
361.392
274.601
171.353
58.2216
684.08
576.505
435.196
270.183
91.5137
864.169
728.329
549.985
341.618
115.756
351.906
300.145
227.887
141.242
47.5755
-7868.3
-6622.52
-5532.54
-5123.79
-4939.61
-1304.56
-828.054
-810.391
-822.334
-541.672
-2378.7
-1697.84
-1352.41
-1071.96
-607.734
-1027.85
-651.065
-546.052
-447.921
-189.969
120.826
104.472
69.5259
29.6629
3.3816
-3217.06
-2563.71
-1906.2
-1247.86
-484.443
614.871
515.683
380.963
228.227
73.855
1926.1
1557.02
1138.23
694.459
233.919
897.272
748.618
558.221
342.479
114.826
-4192.49
-3648.67
-3073.64
-2875.85
-2783.3
-2015.91
-1414.08
-1108.1
-849.542
-449.421
-559.715
-437.531
-343.865
-251.544
-109.021
-572.6
-445.493
-333.943
-224.478
-87.7544
-2791.39
-2204.53
-1637.88
-1064.2
-404.212
-1197.27
-948.663
-703.486
-452.738
-163.188
-310.047
-235.107
-169.141
-108.404
-40.1664
-936.558
-754.686
-557.827
-349.626
-121.767
1620.23
1346.18
1003.42
617.4
208.008
952.991
801.795
602.546
371.618
125.056
-499.045
-394.208
-292.619
-189.292
-69.3316
-247.778
-189.124
-138.704
-91.2648
-34.2645
-4815.32
-3231.43
-2639.47
-2387.91
-2130.54
-2654.54
-1933.5
-1409.62
-971.891
-438.5
-2987.46
-2261.29
-1707.11
-1305.17
-636.343
-1638.31
-1232.36
-897.737
-614.955
-277.79
-2921.12
-2310.42
-1707.04
-1093.29
-399.991
-2527.59
-1662.79
-1264.11
-940.405
-406.32
-1021.96
-814.323
-599
-376.877
-132.679
954.031
804.617
606.451
375.147
126.551
-449.464
-342.769
-253.002
-168.836
-64.7272
-0.358031
26.3628
59.7295
66.7404
12.7389
-108.987
-21767.7
-19244.8
-18218.5
-20744.3
-16002.5
-12704.8
-14317
-10896.9
-19036.8
-16808.6
-17556.8
-16612.2
-15440.9
-13198.3
-16266.4
-18005.1
-16123.8
-14711.7
-16567.1
-13589
-11520.5
-12051.1
-9678.06
-17161.2
-15380
-15833.2
-14534.7
-13748.9
-12826
-13330.2
-14226.1
-13059.5
-11691.9
-12779
-11360.4
-9782.85
-10096.4
-8669.45
-14439.8
-13272.8
-13456.2
-12423.9
-11736.8
-10850.1
-11283.8
-10012.7
-9432.44
-8286.62
-8784.53
-8480.72
-7621.4
-7526.46
-6869.9
-10507.1
-10661.2
-9923.57
-10060.9
-8876.59
-8042.7
-8958.49
-6435.32
-6156.95
-5345.65
-5577.76
-5699.96
-5170.79
-4978.88
-4594.81
-6985.36
-7016
-6676.81
-6581.21
-6094.33
-5518.66
-5995.83
-2322.22
-2241.17
-1936.01
-2004.88
-2108.93
-1970.14
-1826.64
-1702.05
-2641.43
-2655.09
-2479.14
-2386.26
-2290.46
-2103.66
-2260.8
-8113.49
-7985.21
-12242
-13199.5
-7609.51
-6750.86
-10736.2
-8729.31
-6175.53
-4435.92
-6139.91
-4434.12
-6152.28
-5914.13
-4545.31
-8055.42
-7642.07
-10909.3
-11892.1
-7092.97
-6411.58
-9492.65
-8159.84
-6116.19
-3804.27
-6017.51
-4055.47
-5494.71
-5305.93
-4484.97
-7306.37
-6959.68
-9239.27
-9908.04
-6533.54
-6064.91
-8264.96
-7299.16
-4995.2
-4003.79
-4986.31
-4277.05
-4648.22
-4675.92
-4503.55
-5833.84
-5610.93
-6904.42
-7255.53
-5323.25
-4967.08
-6385.64
-5815.01
-4675.9
-3501.13
-4603.86
-3779.86
-4303.16
-4295.19
-3932.86
-3987.19
-3859.07
-4550.48
-4726.59
-3591.12
-3317.28
-4283.64
-3926.55
-3229.65
-2638.78
-3165.22
-2817.19
-2964.62
-2930.26
-2754.61
-1476.39
-1431.04
-1659.93
-1715.64
-1326.93
-1218.13
-1572.87
-1447.61
-1053.63
-959.146
-1123.43
-1062.22
-1091.82
-1068.45
-999.555
7775.71
25097.7
6184.66
26260.7
4628.89
27088
7279.85
41518.1
8936.24
57018.5
8886.95
41661.4
8582.39
34645.5
8936.54
30351.7
5413.87
3401.09
14511.8
8669.17
5280.45
2861.84
15767
7835.09
5948.47
4377.94
18777
13398.2
4508.31
3321.32
18851.7
13865.8
10651.5
4522.29
9242.69
4149.77
4300.84
10014.5
36267
9778.48
13014.6
4320.67
46463
12536.6
12078.2
4067.01
26065.7
8055.97
13394
4624.52
22811.5
7224.6
6921.21
3432.42
9631.97
3793.53
7572.89
4083.16
9551.19
3708.54
9469.54
5424.37
8226.05
3620.48
11940.8
4327.12
4085.28
1437.24
13611.9
9569.1
8317.06
6141.51
14786.8
12205.4
8028.72
6945.8
8041.97
5550.04
11569.3
7924.26
5405.64
3997.52
2651.46
2184.48
5104.87
4405.76
2530.06
2457.33
5287.11
3525.69
2631.65
1704.02
7301.23
4004.77
5582.45
6634.34
10172.8
7260.02
8231.17
11472.8
4755.86
2277.56
3248.19
3760.33
2305.22
972.346
1365.05
1378.56
9457.34
16976.3
6357.28
18878.8
11050.7
16567.3
7822.72
19666
12423.5
14917.5
9969.39
19030.3
13766.8
15827
10879.6
10629
11495.6
15884.5
15298.5
15578
16270.1
23188.9
12931.1
10438.3
9382.97
10577.6
16215.7
19812.6
17831.9
22873.9
22146.8
18110.4
16883.9
22501.2
21641.2
15649.8
15368.7
21019.1
20784
11704.2
9325.44
11482.1
10213.9
12818.6
11788.9
14032.7
13748.8
19161.1
19923.3
10889
9655.28
10853.6
10856.7
11504
12652.4
13083.1
15133.6
16975.9
20130
9125.43
7195.4
6178.37
7761.4
11910.2
14298.2
8174.76
12794.2
5395.26
6969.29
8147.1
6772.83
1557.42
5104.69
721.221
1782.98
4131.08
8511.48
1444.3
2885.3
867.922
4436.58
401.837
1519.43
5384.59
5447.76
6137.61
3926.53
8605.35
6986.34
10119.3
7152.36
1381.99
2977.61
3056.6
1811.11
1635.52
2099.96
2297.92
1744.06
14337.6
8772.72
2799.1
16135.7
9351.03
3075.97
13731.8
8664.67
2953.92
15829.5
9340.15
3070.41
12626.9
7972
2637.33
15390.9
9357.77
3137.32
6334.73
3601.95
1032.24
8422.41
5600.62
1934.91
10264.1
7077.28
2442.56
12006.2
7842.86
2617.07
15197.5
9574.56
3342.92
7377.96
4326.99
1432.97
8133.01
5899.86
2241.17
9842.32
7268.61
2691.68
12223.4
8615.46
3104.8
15402.6
9736.75
3479.65
296.281
2044.13
2887.58
4164.11
2298.75
2614.15
5744.2
5423.32
584.481
990.939
622.598
1027.68
477.306
1383.52
856.971
1815.12
3179.19
1558.71
4042.7
2349.6
2122.09
3689.16
3407.69
743.6
6326.08
1394.67
-2173.17
434.995
1648
1107.88
1055.22
848.202
9536.59
4167.72
2577.08
1536.44
9665.46
4321.15
3267.27
1954.99
9550.36
4631.46
4697.99
3159.32
3326.07
2299.78
1451.94
1383.09
12856.3
11366.3
5999.11
6195.48
14172.9
13251.2
6951.27
6976.15
5179.47
5300.65
10792.5
8927.95
3495.62
3670.96
1830.07
2148.03
4208.38
4179.45
2191.38
2385.9
2938.2
3199.2
1521.23
1983.79
4484.32
2974.07
4426.26
2955.45
7070.49
3927.94
6650.75
4113.35
2611.51
2116.51
2760.07
1878.1
1338.2
1255.75
1708.95
1070.19
11130.6
7320.33
5341.83
5163.79
11063.7
7568.78
5355.3
5142.8
11573.6
8033.98
5432.03
5033.23
14110.7
15622.7
12558.9
8152.81
4347.84
14817.9
13298.8
11989
9578.31
5761.37
13854.6
12193
9485.03
7055.74
4118.79
5831.48
4910.79
5232.03
5676.73
6147.51
4940.72
5345.21
5676.32
6637.55
5137.74
5497.82
5718.43
11176.7
7953.11
10052.4
6959.56
7619.83
6039.36
6834.22
5662.15
5167.78
5763.68
9305.76
8112.6
7956.94
6897.82
6539.6
5829.28
5488.61
5288.67
4032.74
5467.87
7102.04
4825.6
4692.58
2868.66
9548.5
7378.2
6586.05
5361.32
3695.56
2223.4
5386.91
3932.37
4662.44
2223.24
1626.65
925.582
5064.5
3696.19
1684.12
1403.92
3921.49
1732.09
1475.82
758.298
2897.93
2578.9
2356.2
3361.19
4056.55
3697.43
2995.59
4268.56
2970.57
1843.58
1731.11
2303.61
831.994
379.473
82.1662
367.034
3324.15
1395.38
413.73
3708.95
984.747
263.846
3444.65
1538.1
473.409
3747.3
1033.9
291.378
3376.14
1600.45
421.99
3767.17
1079.8
258.892
5023.5
2650.02
649.638
4250.99
2110.41
530.646
3890.15
1893.22
525.794
3612.66
1703.27
381.987
3826.88
1086.93
175.023
6204.11
3222.25
914.506
5272.72
2654.09
749.379
4531.3
2252.44
662.583
4030.95
1755.43
446.703
4167.36
1035.5
258.322
1554.7
540.912
121.57
-104.69
645.02
234.69
67.0088
-16.8426
1646.9
591.093
162.618
-55.3344
821.568
322.851
153.227
68.4031
1755.88
649.381
234.427
25.5823
1378.76
599.193
207.351
38.7199
1014.58
524.498
139.402
-32.2181
896.234
540.669
271.16
140.704
1421.62
594.992
163.152
-116.323
1195.24
492.931
203.91
-104.533
1697.33
632.653
206.674
-60.9007
1514.08
565.013
222.698
-167.604
1110.58
530.152
184.2
-42.8777
896.093
418.376
206.292
1.52317
781.38
440.641
231.561
126.023
591.593
334.557
203.426
106.597
1960.03
655.311
133.96
-215.296
1896.16
600.384
192.743
-287.537
1955.62
662.356
147.499
-205.493
1836.47
582.595
197.052
-279.255
1914.41
660.083
207.454
-133.117
1719.81
549.993
230.06
-219.93
1675.74
604.491
265.928
17.1453
1885.54
611.783
310.995
-253.224
1477.71
532.886
257.446
-51.5637
1465.14
420.159
166.619
-185.015
574.978
152.182
44.7572
-33.574
1520.32
447.003
179.042
-174.144
601.165
163.767
54.2243
-23.6178
1569.98
480.032
211.359
-148.867
622.883
178.603
66.0624
-12.8683
1424.87
451.269
236.559
-111.535
612.468
184.428
87.4227
6.33218
1309.03
444.646
244.862
-55.9655
556.088
193.101
113.996
31.1446
889.243
339.907
155.342
-20.1245
514.825
237.036
129.957
62.4006
1041.47
357.416
176.968
-44.7603
528.824
214.279
123.517
47.9008
700.687
314.12
155.335
19.9291
445.934
236.91
131.852
76.1322
474.59
269.086
164.781
90.7277
353.208
222.729
138.754
94.8679
-9.56734
3.02351
2.95928
1.83089
1.2394
-1.46981
2.10216
1.64097
0.981764
0.65915
5.50595
10.0792
6.44303
3.67891
2.43982
14.6517
9.99582
5.62488
3.11239
2.04675
20.3459
17.914
10.4628
5.8458
3.85503
56.1287
33.4371
18.0281
9.86186
6.46921
65.0345
38.6648
20.9304
11.4979
7.56271
94.8571
51.0339