/*--------------------------------*- C++ -*----------------------------------*\
  =========                 |
  \\      /  F ield         | OpenFOAM: The Open Source CFD Toolbox
   \\    /   O peration     | Website:  https://openfoam.org
    \\  /    A nd           | Version:  11
     \\/     M anipulation  |
\*---------------------------------------------------------------------------*/
FoamFile
{
    format      ascii;
    class       volScalarField;
    location    "1.4";
    object      gradTx;
}
// * * * * * * * * * * * * * * * * * * * * * * * * * * * * * * * * * * * * * //

dimensions      [0 -1 0 1 0 0 0];

internalField   nonuniform List<scalar> 
5712
(
-7103.87
-9080.88
-16793.9
-24587
-25113.9
-43301.1
-19228
-48919.6
-15617.6
-34306.9
-23359.4
-35566.3
-20913.6
-27503.4
-9213.25
-10555.9
-16003.1
-18362.5
-20557.1
-20393.9
-16117.4
-19858.1
-23695.5
-21226.8
-5828.56
-4435.06
-7238.17
-4915.29
-13544.8
-10939.9
-23034.9
-16802.9
-17809.5
-18569.2
-19906
-19206.3
-7157.74
-5513.11
-41928.2
-56125.7
-27136
-33296
-56109.5
-72857.4
-29041.9
-33258.4
-31223.3
-44088.7
-27321.5
-36158.8
-16079.9
-25819
-3143.61
-1065.24
-3298.44
-1194.27
-9473.73
-3843.02
-12916.8
-4777.99
-9300.91
-3550.68
-9740.12
-3134.85
-16522
-5274.57
-21295.1
-7209.01
-25583.2
-12810.2
-23424.7
-13875.8
-23797.4
-15412.3
-20946.4
-15645.8
-18595.6
-11078
-18651.7
-9606.42
-24184.1
-15368
-24248.9
-15484.9
-22141.8
-16503.3
-22411.4
-16544.7
-20063.8
-12713.9
-20776.1
-13006.3
-19087.2
-8353.41
-8911.93
-10971
-19157.6
-9165.49
-7851.35
-11226.3
-20195.7
-8282.57
-10043.3
-10988
-21195.7
-8470.08
-10894
-11443.5
-4068.03
-4458.57
-1381.11
-2775.02
-11834.1
-12536.1
-4651.33
-8443.81
-15165.7
-16754.7
-7533.48
-12906.3
-12290.3
-672.522
-14125.3
-17839.2
-9918.4
-315.981
-7176.16
-12906.7
-21017.4
-15297.6
-10562.9
-13000.9
-11610
-10231.3
-16153.8
-3839.04
-3111.01
-2215.59
-2185.09
-10744.4
-8879.23
-6629.03
-6269.83
-13316.7
-10956
-8651.11
-7700.85
-5687.49
-7356.93
-11928.9
-12484
-14645.5
-13277.4
-16568.7
-14242.6
-11686.8
-9851.13
-9294.14
-9496.88
-12349.5
-9313.23
-11404.1
-7894.89
-10020.3
-6572.47
-12004
-7722.1
-10474.3
-4366.98
-9110.11
-9585.2
-12827.3
-16396.8
-14157.9
-20378.7
-7332.07
-7868.23
-9339.88
-2380.97
-8163.5
-15471
-7766.14
-16678
-14041
-25221.5
-14292
-26869.3
-6278.69
-13456.8
-5747.88
-14430.8
-8744.36
-6346.15
-12333.5
-4675.33
-8815.68
-1129.69
-10653.3
-218.298
-8467.43
-9747.74
-12951
-5882.88
-7057.09
-11572.9
-11513.8
-7775.63
-2403.58
-2073.63
-1781.25
-1739.61
-1563.68
-1356.35
-7039.62
-5541.6
-4627.33
-4627.76
-3553.28
-2971.26
-8392.5
-6968.75
-6315.54
-5529.93
-4291.17
-3957.85
-6268.61
-5287.69
-5064.28
-10709.5
-7700
-6293.9
-10385.8
-7252.94
-5658.91
-10836.7
-8153.95
-6905.26
-7152.92
-4466.4
-3353.9
-15384
-12730.3
-10633.3
-10152.1
-8060.23
-6373.69
-9317.83
-6861.77
-5164.91
-8070.72
-5515.6
-3966.22
-8705.63
-4655.76
-2444.71
-10766.2
-14492
-8591.84
-11003.9
-11809.4
-17228.3
-10616.4
-15303.4
-14.7305
-706.45
521.663
-112.813
-2991.47
-3322.01
-1277.19
-693.696
-758.541
-2451.47
-9602.92
-13914.5
-6670.19
-3787.96
-10309.1
-10238.2
-16090
-17730.8
596.511
4271.67
-7771.29
-7299.38
-7377.94
-5676.65
-1018.2
-532.537
-698.482
-303.97
-1966.28
-146.463
316.765
823.881
-9273.51
-2281.97
-6372.93
-1620.62
-9216.2
-2772.04
-11132.1
-3505.57
-9160.38
-12093.6
-8424.33
-11760.4
-14908.8
-15559.2
-14176.7
-14680.2
-5681.71
-9264.37
-6589.3
-9226.14
-8913.92
-11304.8
-9804.69
-11386.8
-14754.2
-14386.7
-15427.7
-14413.3
-5717.94
-8940.29
-6197.66
-9070.74
315.147
-1068.2
-7019.44
-4050.64
839.321
-673.297
-6504.07
-3562.44
-137.534
-1335.77
-7158.73
-4422.21
-559.532
-1583.94
-7161.14
-4552.17
704.754
803.465
-142.805
24.2117
2932.51
2927.53
279.255
475.985
700.158
2022.87
-1444.74
-754.675
10198.3
9835.04
5508.47
4278.5
604.458
10713
10711.5
4205.85
6222.41
1016.71
-10629.4
-8169.65
-6987.52
-6300.69
-3509.18
773.729
679.002
77.0301
7.74812
2462.53
2283.11
251.608
69.3515
2498.45
2846.81
-418.491
-612.491
5087.54
2110.11
7902.77
4705.04
3476.5
2495.71
3949.93
3273.14
-121.088
-878.831
-3899.14
-2440.23
-1120.13
882.624
-926.746
720.139
-1403.37
-157.297
-1539.86
-1701.09
-5159.03
-4634.3
-9799.22
-5864.98
-8217.57
-8109.19
-12441.6
-9985.18
-7448.36
-4277.78
-3661.81
-3555.98
-11557.2
-5060.42
-12697.6
-5669.62
-13873.6
-10197.3
-14795.7
-10958.5
-9073.51
-3458.17
-10156.2
-4013.66
-5514
-4163.74
-3814.87
-5583.22
-3469.68
-3792.43
-3219.65
-5166.1
-6402.82
-4071.44
-4323.86
-6421.95
-7861.54
-4417.73
-5578.93
-6613.51
639.222
647.822
713.409
47.2716
229.328
250.618
2318.46
2349.41
2302.33
241.763
656.002
643.893
2988.93
3163.83
3167.94
-361.773
647.995
844.801
1019.55
849.198
547.744
3208.32
3199.38
2927.17
2582.15
2819.29
2728.6
3211.52
3291.67
3144.2
-946.577
298.439
382.081
-3551.18
-2041.54
-1125.47
707.008
1633.06
2118.53
740.351
1869.56
2347.71
366.047
1548.3
1875.78
-1728.49
397.833
641.045
27.8069
29.1094
31.3963
45.7115
234.582
120.008
91.997
80.0935
18.3793
54.8463
126.044
177.433
379.12
215.664
232.728
223.418
-178.98
12.4628
183.163
323.963
135.6
163.897
196.589
206.005
18.6669
93.203
82.495
75.7333
-193.708
-18.1439
78.426
125.744
-805.193
-178.797
30.3721
166.111
-1231.99
-294.185
-48.2817
302.89
-541.048
-79.4978
103.791
274.821
-1004
-223.133
-60.7418
257.651
-865.144
-210.769
59.2942
228.053
-1385.88
-349.126
-53.1338
360.658
-962.533
-268.737
58.886
280.139
-1492.93
-396.668
-69.9832
376.102
14.4777
17.6842
28.6267
59.1988
42.6976
26.8426
14.8266
53.3483
82.1032
62.7998
95.5789
164.632
169.532
91.356
50.9643
145.967
-317.427
-47.7044
92.2194
274.135
-117.449
22.9839
58.4914
255.659
-26.5832
94.5514
152.629
281.323
24.6486
80.1345
46.7679
257.06
-848.83
-169.737
-28.445
354.661
80.331
38.1273
22.9924
42.6869
142.332
55.7431
26.4639
21.0369
170.737
90.8226
46.0338
107.056
366.594
148.602
65.0407
53.2807
121.572
101.055
60.7138
174.237
473.709
209.321
97.4841
83.0974
-33.2059
91.4994
75.2021
243.1
394.258
226.199
113.773
103.78
-410.934
10.7894
12.6933
222.535
154.345
193.418
98.1611
102.552
-980.628
-112.605
-11.0795
251.443
-299.575
40.0673
51.1925
88.1155
-738.356
-35.8538
0.000641418
232.971
-149.184
109.008
77.3481
99.4667
-1197.43
-199.74
-36.74
273.372
-427.906
-23.3511
28.8377
81.035
-1355.79
-281.064
-69.6346
268.001
-539.045
-86.5706
1.04844
69.0177
19.8747
7.9679
3.61448
1.84365
1.17794
26.0479
11.9496
5.80023
3.04295
1.96483
47.4463
18.3932
8.28003
4.222
2.69922
58.0357
26.4194
12.8314
6.75
4.36669
62.8996
22.9587
10.1818
5.17688
3.30884
77.0279
34.6601
16.8295
8.86856
5.74385
39.58
17.5205
8.47991
4.47728
2.90588
28.7722
10.476
4.59946
2.34226
1.50335
61.5919
23.0749
10.4211
5.3528
3.43689
29.6115
9.589
4.08333
2.05572
1.31099
65.3298
26.6203
12.5744
6.56327
4.23522
28.173
9.55244
4.1931
2.13117
1.36305
47.707
15.2534
6.36784
3.17991
2.02492
28.0529
8.50334
3.5313
1.7684
1.12811
42.5826
10.2743
3.45359
1.55359
0.953094
23.5978
4.93237
1.52351
0.660459
0.400073
16.8134
6.16165
2.70981
1.36522
0.867931
12.3339
4.90847
2.2542
1.15372
0.736928
41.2416
15.3196
6.87615
3.50371
2.23884
31.9366
12.8231
5.97508
3.08274
1.97701
57.7042
18.9793
8.18607
4.12122
2.62527
43.2273
17.533
8.27645
4.29958
2.76731
51.0318
20.7182
9.86253
5.14958
3.32009
29.3061
13.1584
6.42174
3.37513
2.18129
26.0283
11.171
5.42605
2.84859
1.83964
-238.264
-401.983
-468.194
-960.697
-325.751
-1155.75
340.161
-811.78
1044.95
262.304
-544.255
-1115.25
693.367
592.846
-1122.33
-1872.85
-1514.69
-2203.41
-734.049
-172.804
-39.2942
-8.75551
-2.21726
-212.26
-106.017
-14.5954
-4.00696
-1.82099
-2252.75
-527.455
-120.347
-26.6824
-6.76669
-495.124
-140.515
-35.2381
-7.51964
-2.082
-3764.37
-882.963
-202.039
-44.9552
-11.3787
-801.383
-242.209
-60.1903
-14.2446
-3.64011
-5005.44
-1177.41
-270.613
-60.4229
-15.3192
-931.117
-305.139
-78.2338
-18.6989
-4.76113
-6183.5
-1469.03
-340.122
-76.3638
-19.4524
-1031.24
-372.733
-98.248
-23.7557
-6.11681
-7180.21
-1757.83
-412.896
-93.5809
-23.9752
-1702.31
-531.753
-133.208
-31.009
-7.87654
-6742.11
-1645.94
-384.866
-86.8316
-22.1633
-1273.76
-443.056
-115.07
-27.4082
-6.97975
-7363.9
-1804.23
-424.568
-96.3969
-24.7431
-1959.4
-588.456
-144.9
-33.2149
-8.40878
-7652.65
-1858.33
-437.833
-99.3658
-25.4937
-2046.32
-615.173
-152.669
-32.5278
-8.70324
-550.515
-7393.65
-6749.82
-2397.15
1717.91
2911.17
8085.36
11840.5
1780.78
8671.47
-1887.15
2529.96
2516.86
5096.3
9741.2
13834.7
14726.7
18527.9
6017.28
7802.19
-20086.7
-14380.3
-4206.34
-3111.78
-2213.05
-3104.9
-3029.54
-12130.9
-11077.4
-9625.77
-10004
-7981.85
-5778.77
-7743.11
-4892.57
-4147.01
-4948.51
-3394.98
-19752.9
-9944.91
-3281.67
-5680.14
-8025.11
-5495.49
-5842.41
-4289.97
-2500.98
-3513.58
-3862.67
-4202.69
-19699.8
-12734.3
-12007
-8567.46
-8337.15
-8918.17
-3531.88
-4571.04
-6087.28
-13933.3
-11664.8
-9381.04
-8187.25
-6595.64
-9219.7
-6206.91
-4640.08
-3378.43
-1644.24
-3685.45
-3026.95
-2244.46
-1385.37
-471.047
-2764.37
-2299.04
-1717.72
-1060.99
-359.108
-1955.7
-1615.55
-1198.14
-735.305
-247.891
-2764.47
-2302.82
-1720.91
-1061.66
-358.724
-2673.28
-2206.65
-1637.51
-1006.82
-340.113
-7613.72
-5636.53
-4220.33
-3674.63
-3711.68
-5915.16
-4208.11
-2869.65
-2268.84
-1526.1
-5985.39
-3591.91
-2426.06
-1614.85
-738.135
-5081.61
-3345.31
-2155.41
-1497.51
-845.024
-3703.42
-2277.13
-1383.27
-915.511
-431.258
-4536.61
-3353.2
-2286.14
-1347.54
-458.312
-5261.94
-3386
-2192.2
-1288.74
-469.722
-3205.72
-1929.52
-1156.68
-623.389
-207.809
-3392.73
-2594.76
-1807.4
-1069.98
-358.305
-3923.99
-2906.11
-1963.39
-1133.75
-374.161
-2809.32
-2168.49
-1517.17
-896.437
-297.944
-12787.2
-9456.09
-7314.28
-6122.61
-5442.63
-7232.71
-5163.52
-3684.01
-2415.21
-1042.34
-2708
-2096.27
-1482.61
-892.91
-304.732
-4764.42
-3759.8
-2713.57
-1664.93
-577.443
-6501.01
-5025.54
-3624.31
-2278.85
-843.186
-4627.83
-3677.64
-2680.78
-1663.37
-582.312
-5006.26
-4037.21
-2966.64
-1838.07
-635.297
-3701.62
-2993.75
-2193.45
-1346.52
-458.575
-2142.7
-1712.52
-1234.02
-743.364
-248.906
-3074.43
-2514.2
-1849.8
-1130.63
-381.036
-3261.27
-2573.93
-1841.58
-1109.69
-374.175
-3610.83
-2904.37
-2114.84
-1290.84
-437.97
-13370.2
-10720.4
-8570.95
-7198.53
-5848.75
-8714.58
-6127.57
-4559.97
-3227.12
-1562.62
-8693.71
-6729.83
-4947.67
-3491.63
-1620.86
-6647.02
-4955.14
-3631.35
-2391.88
-945.132
-6868.8
-5404.01
-3953.98
-2508.01
-922.726
-6865.28
-5083.68
-3702.86
-2427.75
-947.007
-3000.06
-2394.67
-1742.77
-1072.6
-369.768
-4000.11
-3275.7
-2417.73
-1484.27
-502.149
-5188.58
-4157.35
-3036.33
-1872.54
-645.005
-6032.95
-12334.3
-12749.7
-35138.9
-12478.6
-46731.1
-6845.67
-16660
-12487
-9600.25
-20899.1
-17357
-12348.4
-11497.8
-23301.7
-18302.8
-4455.73
-3324.79
-8676.74
-5996.49
-9971.21
-7526.1
-26920.9
-19984.1
-16372.3
-12340
-16866.9
-9996.42
-1235.64
-4073.33
-43530.7
-56797.6
-26236
-33154.8
-57225.7
-73332.2
-28039.1
-33019.8
-32566.6
-44786
-26503.9
-36121.3
-17761.7
-26630.6
-2152.45
-570.867
-3799.2
-1299.18
-7320.08
-3293.7
-14891.1
-5394.44
-3193.7
-1831.16
-8005.12
-2526.85
-16562.9
-5218.49
-21502.2
-7265.64
-17408.7
-9098.25
-20225.9
-11993.6
-15652.3
-11258
-17749.8
-13666.6
-16335.2
-9570.31
-12874.5
-6732.11
-22957.5
-14527.7
-23944.8
-15256.4
-20870.2
-15644.7
-22071.3
-16312.3
-19245.1
-12024.5
-20586.2
-12817
-18032.4
-8039.14
-7914.38
-10563.9
-16114.5
-8245.06
-5984.59
-10460.9
-19937
-8209.13
-9582.91
-10793.9
-21175
-8466.66
-10766
-11388.5
-1235.23
-1128.75
-308.141
-1387.76
-5025.06
-5247.47
-3197.27
-6444.82
-2900.38
-3613.72
-5028.58
-9554.54
-12411
-9651.35
-9904.96
-12557.4
-8474.74
-7527.73
-8241.82
-7440.24
-14605
-13159.8
-12155.8
-10427.1
-7454.04
-6539.78
-14315.8
-1226.47
-916.562
-697.502
-784.65
-4695.37
-3703.51
-4035.64
-3560.66
-767.873
454.657
-4793.72
-3773.52
-10156
-10791.7
-9547.37
-8778.31
-7434.12
-5401.3
-9836.72
-7800.77
-9162.01
-7175.26
-11792
-11798.6
-10241
-7748.24
-7717.15
-5029
-6946.78
-4231.36
-10648.8
-6376.96
-9496.67
-4844.61
-8520.38
-9551.55
-13242.8
-17458.2
-13997.1
-20390.9
-6646.96
-7736.6
-7998.37
-2622.02
-7909.39
-15355.8
-7696.34
-16627.9
-13892
-25318.7
-14239
-26849.3
-5991.23
-13328.3
-5671.56
-14386.2
-8273.24
-6315.93
-12175.2
-4782.47
-7868.32
-1556.89
-10453.3
-1020.01
-8268.52
-9683.29
-12877.3
-5900.73
-6999.62
-11547.4
-11491.1
-7771.02
-891.24
-824.596
-628.242
-724.071
-2817.97
-2067.07
-2599.3
-2369.95
1041.95
491.241
-3036.42
-3339.76
-10633.4
-9973.83
-7834.47
-6637.91
-4309.15
-3562.82
-6139.28
-5023.19
-6047.82
-4385.17
-18278.2
-15731.2
-8165.08
-6730.12
-6396.16
-4661.63
-5431.76
-3315.73
-5957.65
-2433.03
-5647.24
-9300.6
-4902.07
-9513.66
-8657.69
-10722.2
-9776.7
-13303
-956.978
-657.583
-689.634
-561.841
-3584.11
-2456.64
-2855.87
-1468.01
-1173.31
-1512.96
-8295.95
-8862.44
-4533.63
-4039.95
-9584.54
-10036.9
-15088
-17435.6
518.121
4159.16
-7340.13
-7205.52
-7142.06
-5658.19
-1002.57
-885.079
-1082.24
-875.077
-1567.02
-956.173
-405.675
-297.901
-7911.94
-3424.36
-6712.46
-2838.53
-9273.78
-3483.48
-11153.8
-3788.84
-5330.25
-10251.3
-7036.92
-10755.6
-8880.49
-11984.4
-11806.7
-13003.1
-5079.07
-8945.14
-4537.31
-8890.55
-8302.17
-10868.9
-9619.35
-11268.4
-13735.8
-13672.3
-15133.8
-14219.5
-5491.6
-8806.59
-6133.81
-9038.76
-103.746
-1723.59
-7315.33
-4579.44
-78.2168
-1775.55
-7238.73
-4375.98
-443.413
-1790.31
-7310.44
-4739.05
-683.397
-1765.14
-7204.41
-4659.76
-998.499
-1078.11
-911.2
-958.019
-1900.29
-1912.64
-1193.37
-1253.29
-8039.89
-7275.37
-3428.58
-3360.8
-3491.94
-4983.45
-3776.91
89.9684
-1354.79
-1052.77
-1221.57
-3523.9
2819.53
-438.122
-14189.9
-11742.5
-10242
-8553.28
-4911.12
-1069.29
-939.483
-1059.34
-1271.11
-1870.96
-1450.24
-1599.07
-2103.72
-7485.52
-7231.51
-3694.39
-4672.14
-4903.59
-6610.83
-2961.97
-4893.16
-4572.68
-4957.53
-816.088
-1215.77
-2227.14
-3382.2
-9674.74
-7832.41
-7407.56
-5351.65
-6201.61
-4359.2
-5195.85
-3659.96
-3420.41
-3672.08
-8012.63
-7836.89
-10887.9
-6972.48
-10356.2
-10992.9
-13020.7
-10898.1
-8779.13
-5330.65
-6373.32
-6286.85
-11944.1
-5726.64
-12789
-5824.16
-13978.6
-10760.3
-14803.4
-11071
-9654.57
-4101.21
-10313.2
-4178.8
-6763.73
-5085.88
-4886.76
-6581.22
-5721.61
-5931.09
-4818.42
-6858.81
-7034.52
-4662.18
-4918.06
-7044.54
-8054.07
-4598.31
-5768.24
-6787.81
-731.057
-636.467
-912.652
-695.039
-1263.45
-1526.1
-1305.54
-1013.05
-6961
-6096.93
-3069.53
-1399.11
-7732.81
-7265.34
-5889.21
-5246.68
-4765.81
-4092.89
-1596.85
-1692.06
-3216.16
-1511.09
-8522.38
-7222.95
-4720.75
-3792.95
-3537.39
-2375.76
-2442.79
-1224.09
-3313.57
-91.2704
-181.452
-79.2454
-27.4268
13.536
-153.974
-91.0686
-21.8592
16.9444
-494.979
-209.133
-0.780537
115.304
-414.344
-225.916
1.63457
95.5216
-827.653
-317.229
32.6199
265.62
-784.197
-360.488
-103.599
22.3322
-549.579
-244.3
-115.226
-35.6414
-439.275
-169.467
-10.6098
74.1068
-1268.71
-432.38
-120.522
68.404
-1508.25
-427.023
-117.608
289.139
-1203.58
-407.736
-73.7777
168.077
-1363.81
-381.664
-138.965
254.505
-1196.85
-402.369
-48.653
171.848
-1569.29
-443.212
-107.031
341.957
-1097.24
-349.232
12.9536
255.605
-1559.39
-432.217
-90.6211
369.039
-171.46
-66.7523
-11.0799
43.5663
-147.076
-50.3959
-24.0208
39.9142
-440.683
-172.939
-12.52
118.074
-368.013
-130.857
-59.3859
105.018
-890.614
-301.96
-18.1352
242.825
-804.922
-259.232
-78.9931
215.567
-978.146
-341.532
-56.9691
189.395
-738.531
-239.627
-98.9648
239.479
-1367.6
-378.037
-124.32
374.346
-106.753
-37.1686
-10.8783
27.992
-49.7307
-24.5773
-9.16518
1.13319
-321.771
-107.966
-49.691
63.453
-162.934
-73.5147
-36.2364
-2.92851
-573.701
-181.394
-77.1647
113.182
-328.716
-129.756
-56.1829
-1.25114
-873.729
-261.982
-96.1374
174.281
-572.472
-192.657
-75.0043
1.97987
-1152.99
-318.137
-162.306
137.742
-767.637
-233.038
-105.07
-12.3137
-1537.76
-414.234
-177.474
169.616
-760.66
-220.88
-90.2325
4.15683
-1479.04
-402.638
-196.989
136.651
-839.974
-243.593
-102.674
-7.17088
-1527.45
-388.461
-143.382
222.263
-687.205
-182.515
-59.09
30.8341
-1462.43
-343.985
-105.665
250.675
-618.474
-137.398
-27.4723
52.8208
-1.00308
-3.92183
-2.70812
-1.60901
-1.091
-11.4693
-8.36111
-4.85273
-2.75445
-1.84234
-1.01844
-9.06964
-6.2919
-3.73133
-2.52723
-25.333
-18.7748
-10.8994
-6.17364
-4.12367
3.54615
-10.8717
-7.7569
-4.61183
-3.12378
-34.096
-25.0753
-14.4649
-8.16678
-5.44772
-17.1808
-12.7762
-7.38662
-4.16514
-2.77457
-0.209994
-5.04238
-3.54238
-2.09755
-1.41659
-4.19039
-12.4767
-8.23432
-4.80677
-3.23816
5.0146
-3.91474
-3.02586
-1.81959
-1.23609
-18.6672
-17.9002
-10.6111
-6.0311
-4.03282
1.89622
-4.65861
-3.24879
-1.91717
-1.2956
9.87275
-5.44296
-4.5384
-2.76976
-1.88695
6.68031
-3.10349
-2.56398
-1.554
-1.05637
25.4163
0.847882
-1.523
-1.16405
-0.834167
16.5016
1.01162
-0.546335
-0.469614
-0.342875
1.9442
-2.56988
-1.9423
-1.17356
-0.799568
-1.7168
-2.71874
-1.72133
-1.00145
-0.675752
0.414056
-7.72291
-5.26069
-3.09914
-2.0949
-7.32078
-7.99724
-4.80765
-2.75361
-1.84764
11.4624
-7.92026
-6.05482
-3.63791
-2.47005
-13.4215
-11.9595
-6.93525
-3.92983
-2.62626
-17.442
-14.8868
-8.54082
-4.82155
-3.22022
-17.5133
-10.4177
-5.65553
-3.14999
-2.09464
-13.6946
-8.90985
-4.90124
-2.74178
-1.82688
-22.5002
-194.553
10.0398
-486.563
153.555
-652.804
536.174
-534.243
862.093
115.203
-682.64
-1254.32
383.422
163.516
-1179.87
-1918.41
-1528.66
-2212.61
-686.84
-164.089
-37.5293
-8.38979
-2.13004
-172.749
-98.4335
-13.6777
-3.83652
-1.75416
-2120.82
-502.35
-115.184
-25.6121
-6.51027
-409.66
-128.045
-33.3607
-7.26512
-2.03331
-3565.35
-843.941
-193.925
-43.2629
-10.9739
-713.603
-228.501
-58.0135
-13.8772
-3.56977
-4784.76
-1132.02
-260.968
-58.3887
-14.8304
-895.45
-298.087
-76.8819
-18.4244
-4.70376
-5992.12
-1425.28
-330.355
-74.2494
-18.937
-1070.08
-374.899
-98.0394
-23.6192
-6.07654
-7105.67
-1735.74
-407.273
-92.2675
-23.6389
-1730.88
-535.556
-133.6
-31.0217
-7.86809
-6622.95
-1612.51
-376.787
-85.0136
-21.7112
-1337.12
-449.716
-115.642
-27.4113
-6.96732
-7324.37
-1792.15
-421.376
-95.6298
-24.5421
-1967.34
-589.417
-144.954
-33.2011
-8.40105
-7640.1
-1854.48
-436.793
-99.1114
-25.4265
-2047.03
-615.136
-152.626
-32.5198
-8.69971
-505.78
-7273.38
-6376.22
-2202.76
-1600.23
-889.004
-3741.66
-2620.89
-6717.67
-6245.9
-3224.71
-2396.03
-275.914
-434.323
-764.687
-1273.96
-1963.29
-2792.15
-202.85
-448.01
-950.141
-1692.9
-2620.56
-3624.97
-207.471
-95.4323
-365.101
-247.557
-687.919
-564.032
-1178.24
-1082.35
-1742.82
-1655.92
-2366.05
-2102.44
-3576.39
-4174.26
-4690.5
-7255.48
-8336.07
-9311.61
-4532.37
-5129.34
-5238.93
-4901.61
-4302.89
-3839.32
-248.875
-210.432
-159.498
-99.4062
-33.756
-391.398
-330.576
-250.285
-155.856
-52.901
-688.336
-580.61
-439.034
-273.136
-92.6633
-1144.99
-964.091
-727.807
-452.261
-153.346
-1760.43
-1478.5
-1113.61
-690.973
-234.137
-2494.29
-2086.62
-1566.59
-970.279
-328.608
-182.876
-154.529
-117.052
-72.9166
-24.7543
-403.454
-340.485
-257.588
-160.311
-54.397
-854.682
-720.362
-544.322
-338.474
-114.803
-1520.34
-1279.09
-964.933
-599.363
-203.192
-2347.78
-1970.11
-1482.95
-919.87
-311.686
-3236.25
-2705.83
-2030.92
-1257.91
-426.086
-187.201
-158.35
-120.071
-74.8565
-25.4236
-86.1201
-72.8584
-55.2535
-34.4508
-11.7012
-329.183
-278.194
-210.747
-131.292
-44.5732
-223.272
-188.757
-143.045
-89.138
-30.2661
-619.651
-523.079
-395.819
-246.379
-83.6073
-508.257
-429.239
-324.947
-202.325
-68.6681
-1059.77
-893.086
-674.701
-419.461
-142.254
-973.811
-820.902
-620.317
-385.697
-130.808
-1564.06
-1314.7
-990.858
-614.983
-208.396
-1486.47
-1249.72
-941.911
-584.523
-198.042
-2114.78
-1769.75
-1328.65
-822.589
-278.468
-1879.69
-1573.02
-1180.44
-730.281
-247.055
-3175.49
-2640.7
-1974.11
-1220.66
-413.562
-3668.04
-3022.17
-2246.95
-1388.96
-472.258
-4046.2
-3285.16
-2426.81
-1506.53
-519.051
-6046.15
-4799.38
-3531.06
-2234.03
-805.314
-6547.23
-5035.81
-3709.17
-2443.67
-975.064
-6996.91
-5269.68
-3889.33
-2642.05
-1132.71
-4025.93
-3349.58
-2505.41
-1549.83
-525.155
-4522.77
-3738.03
-2784.87
-1722.06
-584.721
-4567.93
-3740.74
-2774.85
-1718.98
-587.297
-4193.8
-3387.45
-2502.05
-1561.38
-542.766
-3551.29
-2803.55
-2064.02
-1314.25
-478.528
-3050
-2352.39
-1728.19
-1126.43
-431.857
-287.828
-472.281
-835.049
-1386.62
-2131.3
-3014.27
-218.896
-499.302
-1044.7
-1838.89
-2816.79
-3849.45
-218.313
-104.083
-400.408
-277.011
-755.809
-625.001
-1292.61
-1192.94
-1926.89
-1871.54
-2624.77
-2452.62
-3825.97
-4424.94
-4935.24
-7423.99
-8415.93
-9335.73
-4742.19
-5277.42
-5300.58
-4882.58
-4247.35
-3811.16
-259.701
-219.672
-166.57
-103.85
-35.2718
-425.915
-360.058
-272.872
-170.057
-57.7472
-752.407
-635.424
-481.099
-299.621
-101.709
-1247.79
-1052.28
-795.672
-495.088
-167.992
-1914.21
-1610.9
-1215.88
-755.713
-256.315
-2698.74
-2263.8
-1704.37
-1057.98
-358.747
-197.453
-166.968
-126.571
-78.896
-26.7937
-450.096
-380.321
-288.104
-179.497
-60.944
-940.801
-794.053
-600.885
-374.093
-126.969
-1653.6
-1393.44
-1052.97
-654.939
-222.2
-2527.52
-2124.99
-1602.69
-995.734
-337.688
-3443.02
-2885.19
-2170.55
-1346.86
-456.675
-197.048
-166.747
-126.492
-78.8882
-26.7983
-93.971
-79.5471
-60.3641
-37.6569
-12.7938
-361.269
-305.578
-231.708
-144.461
-49.0653
-250.024
-211.572
-160.495
-100.096
-34.0026
-681.431
-575.894
-436.318
-271.861
-92.3066
-563.727
-476.644
-361.285
-225.183
-76.4704
-1164.1
-982.545
-743.512
-462.867
-157.093
-1074.78
-907.572
-687.055
-427.833
-145.22
-1732.39
-1459.47
-1102.56
-685.625
-232.581
-1683.58
-1419.17
-1072.61
-667.153
-226.328
-2352.72
-1975.73
-1488.64
-924.315
-313.403
-2200.74
-1849.95
-1394.75
-866.145
-293.636
-3407.47
-2844.01
-2134
-1323.37
-449.065
-3905.05
-3233.74
-2416.34
-1499.44
-510.838
-4284.12
-3503.37
-2606.04
-1626.08
-561.572
-6229.05
-4982.35
-3693.32
-2350.15
-849.664
-6652.3
-5150.47
-3818.78
-2529.11
-1011.92
-7033.87
-5311.79
-3931.21
-2676.29
-1148.35
-4221.17
-3520.92
-2640.38
-1636.67
-555.195
-4663.75
-3864.89
-2887.27
-1789.3
-608.283
-4631.86
-3803.13
-2828.98
-1756.63
-601.013
-4185.38
-3388.61
-2509.82
-1570.51
-547.13
-3508.76
-2773.89
-2047.01
-1307.63
-477.85
-3027.72
-2335.91
-1717.82
-1121.68
-430.99
-20039.3
-14430.6
-4557.12
-3470.44
-2665.28
-3640.06
-3485.68
-12980.6
-14351.6
-11302.8
-13010.4
-7404.95
-10835.9
-5583.61
-5860.64
-4212.72
-20489.6
-11000.2
-4035.38
-6607.02
-8883.66
-6008.5
-6472.57
-4865.71
-2954.48
-4179.11
-4833.32
-4924.92
-19610.1
-12919.4
-12659.6
-8949.33
-8791.59
-9456.36
-4188.74
-5192.87
-6727.11
-13949.8
-11731
-9479.05
-8316.68
-6713.76
-9302.17
-6291.84
-4721.34
-3444.98
-1672.71
-4018.71
-3325.84
-2484.7
-1542.48
-526.002
-3096.78
-2589.34
-1945.18
-1206.63
-409.338
-2376.18
-1984.05
-1487.77
-921.178
-312.065
-3257.99
-2731.44
-2054.91
-1274.58
-431.957
-3099.93
-2582.88
-1934.85
-1198.4
-406.4
-9265.69
-7484.93
-5942.13
-5078.88
-4692.86
-10429.1
-8751.38
-6870.17
-5284.25
-2990.98
-8050.72
-5598.34
-4116.13
-2771.93
-1154.07
-9467.8
-7632.22
-5829.03
-4144.04
-1930.08
-6205.43
-4922.7
-3585.86
-2211.95
-762.97
-8423.09
-6224.24
-4475.71
-2789.62
-1001.46
-4800.4
-3880.11
-2849.63
-1754.34
-598.106
-5018.12
-4042.37
-2962.6
-1823.11
-622.062
-3656.02
-2976.85
-2193.76
-1349.41
-458.039
-14096.2
-10961.2
-8769.48
-7339.82
-6263.45
-8442.2
-6368.89
-4729.75
-3150.34
-1329.83
-3459.13
-2794.01
-2056.91
-1274.06
-439.249
-5681.53
-4610.19
-3414.66
-2132.24
-743.6
-7406.85
-5904.84
-4376.11
-2797.38
-1035.97
-5144.53
-4164.88
-3089.01
-1939.66
-681.96
-5615.41
-4592.29
-3419.21
-2137.85
-741.429
-4256.51
-3497.78
-2602.55
-1615.82
-553.151
-2595.05
-2135.92
-1585.29
-977.499
-331.436
-3702.56
-3073.37
-2295.62
-1419.89
-481.56
-4203.89
-3432.83
-2538.47
-1567.48
-534.529
-4308.24
-3538.37
-2629.19
-1628.98
-556.537
-13495.4
-10976
-8903.65
-7569.26
-6209.09
-8976.96
-6397.97
-4813.08
-3426.57
-1650.45
-9573.09
-7639.39
-5787.92
-4133.14
-1905.35
-7078.72
-5392.38
-4021.08
-2674.44
-1053.39
-7356.69
-5887.16
-4376.08
-2805.62
-1035.7
-7476.89
-5689.67
-4240.08
-2813.88
-1097.38
-3631.56
-2966.44
-2205.53
-1376.87
-476.786
-4588.34
-3800.63
-2837.26
-1757.03
-597.076
-5819.54
-4742.49
-3519.9
-2195.73
-759.947
-425.797
-1228.09
-1984.93
-2724.55
-3442.41
-4122.41
-2814.97
-7535.12
-7085.28
-2726.9
-9523.43
-8018.7
-9413.3
-10390.7
-2569
-1652.94
-5973.49
-3386.63
-11208.6
-8056.77
338.345
-2271.93
-6245.26
-5779.16
-2180.5
-8047.24
-6472.03
-7831.31
-8761.94
-2123.96
-954.08
-5143.02
-1706.67
-9177.4
-4793.4
1827.76
-1641.29
-4694.06
-4316.6
-1574.45
-6280.37
-3769.31
-6258.17
-6848.61
-1587.96
-872.603
-3606.28
-1796.29
-7211.64
-1754.72
1976.52
-1187.65
-3577.09
-3342.1
-1177.4
-4720.72
-2187.75
-5106.99
-5927.88
-1179.18
-925.434
-2613.26
-1836.91
-6255.25
-232.558
1489.43
-943.824
-2989.42
-2831.05
-975.194
-3718.85
-1773.29
-4512.52
-5696.47
-918.874
-1019.5
-1842.65
-1779.57
-5409.59
-26.8345
219.45
-823.151
-2630.05
-2570.28
-872.391
-3406.03
-2067.84
-4134.05
-5418.11
-697.265
-800.481
-1485.77
-1734.15
-5332.59
-943.354
-499.354
-1400.5
-3411.51
-5133.47
-1991.62
-5511.31
-9678.35
-7480.88
-10753.8
-979.351
-657.997
-3824.4
-2249.98
-1033.81
-9091.21
-4638.78
-1297.7
-3167.23
-4485.13
-1721.14
-5069.31
-8699.94
-6711.56
-9086.84
-997.173
-567.962
-3941.81
-2097.32
-211.931
-8864.93
-3394.49
-1131.02
-2769.81
-3634.13
-1367.66
-4577.92
-7678.21
-5652.71
-7890.64
-873.793
-650.808
-3323.79
-2164.5
-452.583
-7042.37
-3194.75
-964.846
-2470.2
-2971.51
-1093.89
-4225.12
-6868.12
-4969.76
-7072.83
-789.486
-648.402
-3027.04
-2217.89
-308.721
-6441.66
-3166.45
-862.2
-2202.97
-2606.87
-944.514
-3792.77
-6228.17
-4486.12
-6663.34
-730.142
-700.92
-2712.88
-2388.46
-482.338
-6112.51
-3205.02
-794.709
-1951.96
-2398.21
-861.365
-3479.2
-6126.21
-4133.85
-6412.51
-754.651
-819.828
-2400.93
-2273.52
-751.431
-6242.76
-3561.68
6459.68
8156.97
16832.4
24669.1
25146.7
43285.4
19237.1
48922.7
15631.4
34313
23407.2
35568.8
20930.3
27591.7
7920.12
8999.86
16016.5
18365.6
20551.9
20391.3
16119.1
19855.9
23692.7
21223.7
5375.63
4127.19
6585.87
4487.15
13546.7
10911.1
23088.6
16828.3
17784.6
18573.9
19897.4
19207
7156.06
5490.31
41934.1
56133.1
27136.7
33298.1
56116.6
72865.9
29041.8
33259.5
31227.7
44095.1
27321
36161.8
16086.2
25824.8
2964.98
1021.88
3031.08
1109.83
9443.15
3828.07
12922.9
4779.42
9295.01
3547.18
9726.49
3129.52
16522.9
5274.59
21298.2
7210.04
25582.9
12809.2
23423.1
13874.5
23794.7
15410
20943.7
15643.8
18593
11076.7
18650.9
9605.29
24183.6
15367.1
24248.9
15484
22140.3
16501.7
22410.6
16543.5
20063.3
12713.2
20776.5
13005.8
19083.3
8352.1
8910.61
10970.9
19154.6
9164.2
7849.82
11226
20195.5
8282.61
10042.7
10988.2
21197
8470.65
10893.7
11443.8
3824.49
4144.62
1326.74
2607.99
11779.3
12489.9
4625.22
8405.29
15156.5
16744.8
7529.14
12899
12290.4
673.406
14124.3
17835.5
9916.73
316.944
7176.4
12906
21013.1
15295
10561.5
12999.9
11608.6
10229
16153
3498
2804.05
1993.42
1994.19
10776.1
8907.2
6693.62
6310.79
13308.8
10953.2
8647.92
7700.02
5687.65
7356.83
11928.7
12483.7
14644.3
13276.4
16564.9
14240.6
11685.5
9850.96
9293.46
9496.56
12348.8
9312.96
11403
7894.43
10018.8
6571.83
12003.7
7722.23
10473.6
4366.87
9109.22
9584.92
12826.1
16396.1
14156.5
20377.7
7331.4
7868.15
9339.23
2380.92
8162.67
15470.8
7765.35
16677.7
14039.7
25220.6
14290.8
26868.4
6278.15
13456.8
5747.37
14430.9
8744.09
6346.23
12333.9
4675.56
8815.11
1129.71
10653.5
218.574
8467.35
9747.93
12951.6
5883.13
7056.98
11573.2
11514.3
7775.94
2127.66
1853.67
1619.33
1585.19
1437.11
1260.58
7074.95
5555.45
4628.51
4663.97
3569.49
2974.78
8393.06
6970.09
6316.61
5531.02
4293.76
3960.38
6268.61
5287.85
5064.49
10709.3
7700.21
6294.2
10385.5
7253.23
5659.35
10836.5
8154.78
6906.23
7153.38
4467.59
3355.24
15383.7
12730.4
10633.7
10152
8060.29
6373.92
9317.65
6861.9
5165.23
8070.58
5515.81
3966.63
8705.73
4656.07
2445.17
10739.6
14475.1
8562.69
10989.3
11797
17218.9
10601.4
15295
57.523
613.934
-435.074
70.2744
2990.46
3396.2
1277.35
773.658
732.444
2425.17
9586.04
13893.6
6652.57
3774.53
10301.7
10234.9
16085.6
17728.8
-602.596
-4273.63
7761.57
7294.85
7372.32
5674.51
889.262
483.769
593.252
264.871
2021.61
157.733
-256.314
-807.764
9262.34
2280.52
6366.1
1620.66
9209.25
2770.4
11128.5
3504.43
9150.15
12088.3
8416.27
11756.2
14901.8
15555.1
14171.2
14676.9
5674.41
9260.44
6580.35
9221.45
8909
11301.9
9801.98
11384.8
14750.7
14384.3
15425.6
14411.5
5713.38
8937.48
6195.24
9068.84
-319.031
1067.67
7016.62
4049.57
-843.782
672.624
6501
3561.36
134.554
1335.03
7156.52
4421.22
557.938
1583.42
7159.61
4551.4
-668.45
-756.744
129.957
-28.9741
-2907.59
-2902.28
-274.887
-466.216
-698.736
-2021.3
1444.43
754.612
-10198.2
-9834.17
-5508.74
-4278.63
-604.488
-10711.8
-10710.2
-4205.76
-6221.08
-1016.5
10627.3
8166.46
6984.37
6298.18
3508.17
-738.361
-643.863
-90.9503
-25.1528
-2436.66
-2261.99
-232.253
-52.1229
-2496.82
-2844.62
418.456
612.218
-5087.31
-2110.12
-7902.44
-4704.97
-3476.77
-2495.77
-3949.32
-3272.35
120.944
878.537
3898.13
2439.85
1118.7
-883.027
925.505
-720.435
1402.56
157.143
1539.38
1700.69
5156.8
4633.23
9796.86
5863.75
8215.78
8108.24
12439.6
9984.03
7446.2
4276.7
3659.84
3555.01
11555.3
5059.35
12696.1
5668.72
13871.9
10196.3
14794.3
10957.6
9071.71
3457.25
10154.8
4012.9
5512.4
4162.81
3813.94
5582.29
3468.21
3791.57
3218.79
5165.21
6401.45
4070.57
4322.98
6421
7860.37
4416.99
5578.13
6612.67
-608.194
-604.083
-664.011
-63.6056
-225.942
-243.205
-2297.65
-2337.92
-2294.42
-222.862
-645.836
-636.957
-2986.58
-3161.79
-3166.51
361.007
-647.616
-844.525
-1019.52
-849.093
-547.641
-3208.27
-3199.21
-2927
-2581.98
-2818.98
-2728.32
-3210.62
-3290.69
-3143.37
946.131
-298.395
-381.952
3550.93
2041.59
1125.63
-707.168
-1632.94
-2118.33
-740.42
-1869.34
-2347.44
-365.994
-1547.98
-1875.42
1728.09
-397.845
-640.978
-23.2551
-25.5525
-27.9684
-40.9037
-218.427
-111.217
-85.3017
-73.8435
-17.9231
-54.6579
-126.267
-178.187
-374.953
-214.136
-231.542
-222.618
179.103
-12.3312
-183.005
-323.77
-134.94
-163.597
-196.408
-205.857
-18.6672
-93.1529
-82.4481
-75.6875
193.663
18.162
-78.3972
-125.714
805.184
178.893
-30.2745
-166.006
1231.79
294.199
48.3344
-302.796
540.996
79.5884
-103.673
-274.672
1003.83
223.161
60.7994
-257.55
865.037
210.814
-59.2255
-227.978
1385.67
349.129