/*--------------------------------*- C++ -*----------------------------------*\
  =========                 |
  \\      /  F ield         | OpenFOAM: The Open Source CFD Toolbox
   \\    /   O peration     | Website:  https://openfoam.org
    \\  /    A nd           | Version:  11
     \\/     M anipulation  |
\*---------------------------------------------------------------------------*/
FoamFile
{
    format      ascii;
    class       volScalarField;
    location    "1.4";
    object      gradTy;
}
// * * * * * * * * * * * * * * * * * * * * * * * * * * * * * * * * * * * * * //

dimensions      [0 -1 0 1 0 0 0];

internalField   nonuniform List<scalar> 
5712
(
12358.3
7129.49
19969.4
13133.7
21833.8
16200.1
34126.7
42534.3
44946
55237.4
29136.6
25384.2
18491.7
14708.8
9306.81
6303.06
20537.4
20799.9
17784.9
20781.2
27737.2
24529.2
32228.5
25844.4
8658.21
6167.46
4888.66
3647.14
10295
8353.91
6296.95
5129.68
19114.3
19661.5
19347.1
16030.6
14836.9
11781.5
11790.6
13449.1
18969
18942.8
40113.7
41546.7
28188
29125.3
16381
13815.7
17677
12569.7
8223.75
8493.89
6883.14
10025.3
3612.43
4465.39
9407.1
13349.5
5638.98
6697.91
10318.1
17990.4
7195.72
12036.5
2725.63
7117.8
2270.32
5294.93
18231.3
22608.1
19009.5
22632.6
22220.6
22364.6
22827.3
22202.1
16310.5
22213.6
16592.5
21861.2
18814.4
22548.3
18859.6
22537.1
23135.8
21994.6
23121.4
21826.6
15131.6
22350.4
14644
22457.9
18845.7
22499.1
23790.6
33743.3
19984.8
26193.5
23601.1
36917.3
17858.7
19709.2
23866.2
32313.2
17675.8
18404.7
24123.3
32020.7
6019
7996.07
15455.1
27473.5
7375.82
8488.39
19701.1
30910.9
9043.44
9170.13
24694.9
33966.6
25245
26602.5
21831.7
21542.8
32251.3
26644.8
25542.9
22203.7
19584.2
37199.9
24349
24375.9
22121.6
22612.8
42016.2
2268.32
2742.97
4946.18
11697.1
3192.26
3668.26
6711.1
12878.3
4681.01
3981.79
8984.07
14457.4
26068.7
25217.9
23813.6
22896.2
20927.1
18657.6
16066.6
13976.8
11666.5
16659.4
23890.4
22637.2
24422.4
23620
21609.1
19937.5
18268.4
16212.3
12360.1
16618.8
24406.6
27352.5
24405.4
28133.3
23294.9
23926.1
22820.3
24229.6
22545.8
22877.1
22340.5
22168.8
24245.6
28294.5
24169.4
28308.1
22199.2
24597.6
22049.8
24579.9
22635.4
22825.7
22652.3
22831.1
19233.3
18262.9
12488.1
14002.9
19128
17819.6
12325.4
14170.7
19480
18184
12747.4
14007.5
19560.3
17995.8
13140.8
13996.5
1786.35
1150.25
769.082
1001.41
645.98
595.373
2507.33
1396.91
1016.73
1943.06
1500.96
1248.97
2815.73
2176.51
2113.57
3384.62
2655.31
2327.76
23346.3
20305.3
18293.6
21752
19472.9
17798.6
15772.2
14121.7
13202.2
10982.9
9092.38
8267.2
5190.47
3625.38
2981.5
21289.8
18942.5
17135.1
22204.7
19429.4
17428.3
16715.2
13710.1
12043.5
11078.1
8408.8
7307.11
5497.2
3587.51
2786.61
27877.3
27081.8
30536.6
27208.5
31467.3
27217.5
38232.9
28838.2
21408.9
21507.7
21203.9
19521.7
24047
22427.8
23711.7
20102.7
23477.5
23161.3
21580.4
22921.6
28412.8
25709.4
28785.1
29305.5
31463.2
32632.8
23874.7
24846.7
21365.8
20778.5
25838.4
26569.5
16533.5
8957.11
15536.7
9906.79
16803.5
9038.85
15524.1
9849.97
16590.8
9079.74
15506.6
10264.2
15127
10737.6
15334.1
10644.1
21461.9
18152.3
21486.4
18218.3
23834.8
21370.1
24240.4
21264.3
20932.8
15079.4
21687.4
14806
22066
18187.1
22396.1
17999.6
24982.7
21156.9
25058.3
20914.5
20821.7
15166.3
20803.6
15081.6
13634.2
9112.59
11872
7749.4
12626.4
8159.62
11359.8
7244.68
14018.5
9681.04
12091
7986.75
14058.4
10016.8
12066.3
8043.62
2602.15
1366.09
4826.09
2702.99
2768.23
1658.24
5132.98
3193.76
3387.4
2474.03
5666.03
4109.64
12972.1
20288.8
9340
8964.49
6512.46
19740.6
13596.3
7918.81
7973.01
5377.62
20707.7
16148.5
12748.2
9900.2
6360.73
736.617
534.073
1638.48
1237.15
1013.1
678.822
2209.34
1756.48
1722.42
1270.31
3105.65
2513.85
19822.4
18762.5
13249.9
12354.1
8515.17
8291.18
7156.9
6305.03
4589.47
3719.91
18726.8
16665.2
14332.7
12230.9
11040.7
9461.17
8374.96
7248.95
5580.74
5269.94
14830.5
11637.7
15001.1
11456.7
18064.6
14701
18127.5
14632.9
12396.7
9705.41
11973.2
9661.4
15056.5
11337.2
14978.4
11333.2
18113.3
14987.1
17963.6
14968.1
12654.9
9599.41
12638.5
9727.44
9599.56
7802.47
6542.86
6554.49
9215.02
7579.62
6244.94
6179.01
10022
7977.5
6714.87
6927.28
10252.1
7976.84
6969.73
7025.07
1427.2
1233.12
1009.88
6070.41
3221.03
2610.01
1397.68
1352.75
1187.34
6656.19
3845.14
3227.25
1949.35
2139.33
2163.55
7474.87
4872.27
4287.1
17059
15368.2
14253.4
11390.5
10618.5
10170.2
8111.61
7700.03
7533.34
6753.99
6304.97
6033.38
8643.31
6082.06
5413.27
14664.1
12947
11853.4
10623
9441.46
8790.69
8587.18
7615.73
7098.15
8002.32
6834.7
6187.93
10599.7
6887.86
6065.4
4935.41
2993.47
1944.46
1378.9
5529.22
3238.5
2046.72
1415.7
4964.25
2994.69
1950.2
1387.56
5648.26
3306.53
2094.72
1442.92
4961.94
2972.93
1973.87
1403.01
5767.32
3353.03
2162.48
1473.9
6195.51
3540.84
2184.27
1493.56
6369.83
3670.44
2237.92
1534.17
5281.41
3162.94
2061.7
1432.99
4401.45
2813.52
1908.27
1371.42
4666.91
2882.69
1938.67
1355.03
4076.59
2661.48
1837.03
1323.5
5694.59
3374.51
2143.53
1480.74
4597.33
2924.41
1952.37
1407.45
5925.82
3518.15
2205.01
1522.62
4685.14
3003.99
1993.03
1436.2
3776.61
2592.18
1786.65
1313.5
2564.07
2120.29
1595.2
1234.69
3793.93
2584.81
1787.65
1312.65
2672.07
2150.36
1605.85
1241.83
3892.97
2591.37
1808.18
1327.8
2989.28
2244.32
1644.1
1271.14
3868.77
2543.21
1788.29
1358.15
3267.33
2313.59
1697.09
1274.96
3644.7
2484.62
1757.27
1305.12
1398.58
1744.76
1292.1
393.763
160.674
1540.81
1174.82
404.913
1614.57
1817.33
1322.5
414.712
413.475
1620.29
1200.45
413.592
2025.8
1947.06
1365.37
413.805
851.74
1756.17
1236.65
418.359
2539.68
2104.94
1435.57
448.626
1336.87
1910.78
1291.39
436.436
2900.77
2254.23
1523.68
517.621
1513.83
2034.44
1343.13
452.469
3114.25
2425.54
1561.75
496.717
1337.26
2180.84
1441.44
481.341
3029.65
2350.19
1533.84
496.04
1276.39
2113.56
1391.32
464.397
3151.22
2478.36
1577
466.1
1311.79
2236.84
1471.77
484.169
3216.18
2531.5
1614.69
474.656
1410.68
2293.14
1508.39
495.141
1070.9
734.553
461.036
249.827
78.7434
1061.33
733.351
461.464
250.203
78.8668
1084.77
741.335
464.073
251.139
79.1119
1080.13
742.009
465.487
251.98
79.3706
1113.24
750.89
467.972
252.784
79.5725
1104.62
752.079
470.151
254.051
79.9602
1118.75
763.249
476.207
256.904
80.7885
1144.5
778.944
484.666
260.914
81.9579
1141.58
762.236
473.492
255.292
80.2918
1215.17
775.642
477.174
256.581
80.6315
1146.96
759.218
470.864
253.923
79.8844
1213.4
770.726
474.262
255.188
80.2244
1151.27
772.008
478.9
257.857
81.0388
1237.55
785.098
482.066
258.883
81.3015
1178.3
787.298
486.847
261.588
82.124
1266.17
798.745
488.93
262.092
82.2349
1098
738.06
460.959
249.523
78.634
1150.68
742.149
461.043
249.348
78.5686
1111.28
743.447
463.248
250.489
78.9034
1161.44
746.258
462.805
250.094
78.7766
1138.79
752.442
466.826
251.992
79.3229
1185.17
753.749
465.923
251.426
79.1494
1181.3
762.533
470.408
253.455
79.7288
1213.55
761.766
469.435
252.958
79.5817
1220.98
767.699
472.411
254.307
79.9674
11612.4
18011.2
12059
18205.5
12681.1
18401.8
12998.4
18399.9
12258.3
17426.9
11075.1
12527.3
11181.6
13306.8
11086.5
12331.4
11258.7
12443.6
10366.1
1781.2
382.278
86.1431
15.3124
11554.4
3297.93
803.722
183.134
32.5366
10402.4
1757.09
374.686
84.1605
14.9249
11571.6
3265.12
793.339
180.011
31.7205
10373.6
1730.65
366.407
82.0241
14.5242
11512.9
3219.47
778.973
176.258
31.0314
10125.8
1655.07
347.711
77.7248
13.7637
11222.3
3113.43
751.427
169.898
29.9001
9447.11
1505.49
315.916
70.9029
12.5931
10480.8
2915.47
706.529
160.322
28.2724
8177.86
1355.62
294.043
67.1569
12.0319
8380.14
2452.25
611.136
141.193
25.1676
8568.69
1397.72
299.551
67.9584
12.1313
9010.06
2631.32
649.62
148.797
26.3682
8010.04
1340.42
292.052
66.865
11.993
8140.53
2366.25
590.167
136.806
24.4609
7954.81
1325.53
288.518
66.0753
11.8412
8116.46
2341.02
582.203
135.259
24.1462
35072.9
50133.2
48899.7
33953.2
19783
20862.1
29209.4
30618.6
23020.9
25907.3
36784.4
50456.5
46596.4
61981.3
30341.2
34697.6
23711.8
25407.5
12835
14102.7
4798.41
3077.74
636.127
458.186
519.946
444.738
570.07
4554.48
4345.66
2556.66
3525.18
3279.2
1364.31
1960.38
1715.39
1088.13
1269.1
1012.07
4142.62
2089.56
1219.4
1066.8
1424.82
1216.2
915.012
840.888
759.587
653.995
944.612
843.703
4403.83
2561.77
2968.99
1790.76
1420.39
2098.32
929.699
683.917
1036.54
9567.24
9292.54
9109.45
9807.69
15416.9
6682.01
7391.47
7786.04
8446.59
9608.55
1657.75
2333.72
2825.59
3148.27
3311.49
1206.08
1722.91
2111
2368.28
2496.87
1367.25
1949.14
2381.83
2665.04
2804.9
1172.72
1679.22
2060.81
2313.35
2438.89
1493.82
2118.88
2579.14
2879.89
3029.27
9398.56
9358.58
8900.06
9071.97
13617.4
8951.55
8757.56
8180.58
8088.79
9023.7
5769.91
6624.76
6919.53
7185.61
7618.46
7468.26
7592.64
7157.18
6908.22
6965.55
6948.61
7139.87
6728.68
6397.66
6304.31
3353.17
4331.17
4882.71
5199.48
5371.08
4584.52
5517.09
5903.21
6109.98
6272.19
4071.44
4994.92
5393.17
5563.51
5645.64
2740.48
3663.19
4235.8
4569.96
4733.02
3137.18
4080.65
4612.23
4898.44
5033.56
2567.27
3465.43
4034.6
4365.8
4522.18
8711.59
8963.15
8771.65
9174.08
13928.9
4877.72
5894.69
6413.39
6838.18
7321.63
3044.13
4023.49
4625.75
4996.78
5202.72
2695.3
3627.31
4235.62
4623.23
4835.33
3494.8
4517.57
5133.09
5547.7
5832.89
3042.52
4043.1
4689.72
5122.58
5383.89
2339.11
3205.34
3804.5
4200.62
4415.37
2165.13
2993.44
3569.14
3939.15
4128.5
1968.67
2744.6
3286.64
3625.66
3790.07
1705.95
2402.3
2903.68
3225.01
3382.79
2411.5
3289.25
3870.58
4227.45
4405.21
2171.02
2997.31
3565.79
3925.04
4105.68
8997.37
9010.09
8886.28
9508.01
14764.7
5743.84
6632.77
7140.67
7756.78
8645.19
6767.68
7671.57
7950.95
8527.47
10116.3
4285.99
5384.26
6055.83
6602.21
7083.71
3499.81
4561.33
5234.59
5716.61
6049.75
4905.2
5957.78
6534.25
7041.81
7615.16
2375.73
3251.71
3851.97
4243.45
4452.92
1778.53
2494.46
3007.78
3339.2
3504.69
2626.47
3551.21
4166.21
4565.39
4785.38
19585.8
13055.4
20136.6
14444.4
25956.1
37480.2
27202.9
37358.6
20642.3
21727.1
17769.5
21071.5
23245.9
21955.2
29893.1
24268.4
15238.9
14452.7
7465.88
6455.4
16567.2
15323.6
8553.51
7053.93
20556.2
22140.8
20936.4
18989.6
21502.8
14143.6
11673.5
13450.1
19015
18959.2
39785
41518.8
27556.3
28969.6
17131.4
13985.8
18563.4
12740.4
9029.99
8695.1
15405.8
17186.3
6429.2
7064.65
16882.8
19448.4
7989.56
8885.87
15986.1
22633.1
9260.22
14428.7
3212.54
7949.08
2369.95
5458.64
19086.5
21731
19039.3
22135.9
20556.9
20759.8
21757.5
21322.9
17587.6
22215.9
19987.6
21912.6
18720.6
22286.6
18813.7
22452.5
22600
21553.6
22967
21691.3
15550.6
22330
14724.4
22444
19937.2
23888.4
24150.2
34122.4
21777.8
28441
24287.1
37615.6
18370.9
20395.9
24025.4
32498.9
17812
18598.8
24162.2
32074
21175
22831.5
26836.5
40058.3
21209.4
21635
28672.8
40507
20753.7
20324.8
30755.6
40016
19272
19861.4
20949.7
22702.5
34851.7
19032
18024
22295.3
20649
40009.5
19857.5
21015.9
21200.6
23474.8
43056.5
12235.6
11079.8
11633.9
15297.4
13410.3
12167.2
12033.7
15677.9
14797.1
12685.4
12552.8
15959
18298.9
17347.2
17413
16719
20532.2
18929
17160.7
15295.6
13110
16597.9
19385.8
18906.1
20846.8
20757.1
20335.7
18961.4
18767
16565.4
12874.2
15987.3
22758.7
25500.6
23609.3
27163.4
21209.8
21967.5
21846.8
23282.3
22173.8
22355.8
21666.9
21323.3
23867.1
27839.2
24056.2
28175.1
21753.7
24147.9
21919.2
24450.2
22438.5
22566.9
22590.2
22755.4
19214.1
18098.4
12592.6
13952.6
19200
17656.9
12603.6
14099.6
19447.8
18086.7
12782.6
13977.3
19545.8
17964.2
13148.3
13985.1
10063
10226.5
4399.23
4024.25
11225.1
10825.4
4926.06
4690.2
10910.4
10135.2
5586.62
5363.08
16834.1
16131.7
16716.4
16629.5
16964.5
16268.5
12979.1
11465.3
6617.09
5391.7
18877.9
17871.7
20573.3
19522.2
16644
15198.8
12163.4
10267
6059.51
4451.28
22795.6
21498.4
28289.6
24474.4
25656.7
22670.4
35561.8
26523
20732.5
16911.7
22760.6
17866.2
20579.4
17198.2
22856.7
18120.6
21335.5
18711.7
19172.4
17652.9
21487.9
23005
27441.8
28904.2
30390
32331.9
22567.7
24397.9
20276.8
20469.5
24297.1
26053.4
13675
10067
14195.9
10315.6
13965.1
9988.61
14412.3
10181.8
13864.5
9847.28
14373.1
10399.8
14458
10733
15110.7
10634.3
17561
16876.6
19566.7
17432.2
20330.1
19350.4
22410.6
20155.6
19081.8
14766.7
17968.7
14504.9
21123.4
17770.9
22118.1
17873.8
24112.2
20605.1
24809.9
20749.3
19900.6
14969.9
20532.4
15020.3
13200.6
9478.53
12038.9
8102.44
12526.7
9154.19
11908.9
8005.71
13691.4
9803.72
12132.5
8147.96
13945.4
10043.3
12075.1
8095.07
13022.7
12943.1
9425.69
8673.72
13153.4
13060.5
9286.01
8604.73
13090.3
12563.1
9064.93
8517.2
15353.3
18322.8
16011.9
11832.9
8790.74
16939.3
15673.8
17296.9
11776.8
8480.68
18710.5
16346.2
14318.5
11925.2
7910.68
13133.3
13734.3
8482.74
8883.73
13041.9
13438.1
8423.5
8787.04
12227.6
12289.9
8107.81
8064.15
16603.6
15475.3
14781.4
13921.5
15103.5
15126.4
11659.6
12004
7902.85
7591.92
16815.1
15126.7
14886.6
13240.1
13177.9
12186.3
11059.6
10637.7
7336.28
7471.62
14608.2
12084.3
14728.5
11592.8
16842.7
13997.5
17419
14248.8
12548.2
10224.5
12588.7
10897.7
14878.4
11383.2
14922.2
11343.1
17759.6
14792.7
17858.5
14911.8
12664.7
9809.84
12628.7
9778.03
10054.5
8521.39
7003.64
7225.11
10292.5
9128.14
7170.77
7549.41
10195.2
8283.9
6925.44
7273.51
10299.3
8063.11
7039.07
7131.39
15734.1
15582.5
20417.1
17391.8
15216.2
15135.4
19607
16646.2
13440
13813.9
18038.9
15477.3
14735.4
14048.6
13233.2
12837.9
14924
15077.2
13297.1
13052.5
16557.2
14098.2
13808
12920.2
12212.8
11814.6
12052.2
12128.5
12453.9
11998.1
15994.7
12798.9
6296.38
3865.24
2437.78
1674.25
6518.44
3978.19
2497.8
1691.6
6197.67
3803.74
2401.29
1656.13
6470.35
3944.27
2485.17
1683.47
6019
3684.67
2372.52
1640.47
6404.39
3865.92
2490.16
1678.7
6560.68
3861.28
2401.11
1634.21
6490.8
3781.46
2311.31
1582.96
5827.58
3571.27
2329.89
1610.17
4778.92
3109.5
2102.3
1505.43
5543.75
3468.74
2292.35
1575.52
4700.02
3117.69
2099.83
1487.6
5991.29
3616.89
2310.43
1593.49
4799.5
3091.41
2072.48
1496.81
6017.18
3598.96
2261.98
1561.81
4748.63
3058.32
2033.78
1466.8
5841.85
3655.02
2337.78
1632.88
5113.42
3348.79
2204.13
1577.13
5710.37
3591.06
2305.4
1610.81
5024.53
3312.21
2184.28
1568.57
5528.27
3488.06
2275.25
1598.87
4961.2
3264.38
2163.18
1564.35
5129.82
3297.3
2190.92
1596.69
4807.34
3184.49
2140.91
1516.35
4577.05
3104.81
2086.47
1492.94
4077.66
3039.04
1864.8
533.718
2515.96
2844.19
1761.34
568.609
4103.24
3036.77
1868.31
552.151
2636.14
2845.09
1759.91
571.084
4153.7
3017.89
1848.64
530.238
2803.9
2831.52
1737.77
558.946
4105.9
2973.09
1858.9
556.291
2801.39
2791.22
1723.06
559.935
3866.14
2885.25
1866.03
619.82
2366.28
2698.23
1694.44
557.068
3414.16
2691.95
1758.08
565.304
1524.55
2466.69
1625.19
542.324
3575.6
2774.3
1805.51
582.248
1688.9
2566.57
1654.29
546.459
3301.07
2624.57
1694.64
508.319
1388.18
2391.7
1578.38
520.748
3259.89
2578.05
1653.38
488.812
1428.62
2341.41
1542.71
507.091
1266.8
843.532
517.473
276.164
86.3844
1240.46
836.671
515.631
275.588
86.2407
1265.81
840.663
515.474
275.129
86.0732
1237.88
832.151
512.715
274.119
85.8033
1278.09
838.509
513.113
273.837
85.6815
1237.76
826.752
509.202
272.356
85.2796
1209.87
814.981
503.393
269.676
84.5032
1177.95
798.415
494.957
265.761
83.3686
1263.11
829.707
508.399
271.604
85.0288
1329.69
835.62
507.831
270.866
84.7772
1301.39
839.454
511.894
273.029
85.4268
1361.13
842.912
510.853
272.194
85.1561
1231.35
818.202
502.995
269.151
84.3217
1311.64
825.652
502.967
268.654
84.1402
1205.98
803.274
495.23
265.527
83.2702
1291.58
812.845
496.237
265.516
83.2305
1320.17
853.74
519.694
276.768
86.5257
1407.96
863.038
521.261
277.154
86.6137
1322.93
852.056
518.319
276.034
86.3034
1408.93
861.492
520.176
276.59
86.4435
1335.04
849.954
516.119
274.856
85.9476
1414.02
858.508
518.069
275.525
86.1253
1364.5
849.53
514.149
273.733
85.6046
1421.67
853.839
515.392
274.228
85.7422
1395.45
847.804
512.732
273.011
85.3883
13205
17494.1
13252.8
17478
13353.5
17425.4
13065.3
17144.8
12120.8
16208.7
11057
12419.3
11163.7
13037
11074.2
12285.4
11254.6
12431.2
10329.3
1733.62
368.185
82.6509
14.6728
11122.5
3176.39
772.227
175.634
31.1756
10268
1702.19
360.15
80.6951
14.3012
11054.8
3131.77
760.663
172.495
30.3892
10099.2
1665.57
351.364
78.627
13.9274
10890.9
3072.12
745.247
168.827
29.7438
9757.9
1587.97
333.618
74.666
13.2356
10561.9
2965.47
719.078
162.981
28.7219
9132.16
1453.07
305.078
68.5459
12.1852
9929.32
2791.52
679.343
154.507
27.2838
8097.22
1339.24
289.922
66.1443
11.8454
8274.22
2413.36
600.444
138.613
24.7011
8411.94
1367.5
292.535
66.3346
11.842
8776.13
2556.66
631.081
144.61
25.6396
7971.51
1332.33
289.916
66.3174
11.8895
8094.68
2348.45
584.925
135.473
24.2116
7943.44
1323.09
287.858
65.9029
11.8082
8103.53
2335.96
580.661
134.853
24.069
34653.2
49921
48065
32658.2
25303.7
30430.6
24404.9
30293.5
28611.6
46001.8
30425.2
47172.9
90.1488
102.439
129.642
174.727
242.863
340.953
100.152
113.158
141.804
188.777
258.169
355.319
82.7276
79.1118
95.4746
92.9505
123.838
123.974
171.354
177.086
242.444
255.851
339.483
354.041
478.391
666.474
926.914
1291.37
1723.01
2035.29
486.394
657.018
871.499
1122.36
1368.49
1529.2
240.864
352.211
441.139
502.889
534.475
273.501
399.456
499.704
569.102
604.527
345.679
503.815
628.939
715.116
758.96
465.027
675.737
841.098
954.212
1011.52
644.626
932.758
1156.36
1307.99
1384.45
901.332
1296.12
1597.77
1800.2
1901.85
267.453
390.759
489.002
557.077
591.852
301.914
440.473
550.425
626.352
665.05
377.754
549.744
685.3
778.379
825.653
501.771
727.677
904.088
1024.34
1085.17
684.128
987.464
1221.52
1379.72
1459.42
937.59
1344.64
1653.94
1861.05
1965.16
221.12
323.539
405.478
462.463
491.642
211.495
309.55
388.065
442.711
470.706
255.016
372.715
466.57
531.651
564.906
248.319
363.031
454.578
518.101
550.575
330.376
481.906
602.062
684.962
727.181
330.791
482.633
603.11
686.271
728.634
456.338
663.764
826.94
938.752
995.445
471.648
686.117
854.859
970.474
1029.08
644.034
933.018
1157.86
1310.54
1387.54
679.644
984.54
1221.61
1382.42
1463.43
898.557
1294.41
1597.84
1801.58
1903.73
937.344
1350.67
1667.36
1879.61
1985.79
1256.59
1789.8
2188.4
2452.95
2585.89
1732.99
2432.63
2940.36
3275.3
3446.61
2371.5
3254.99
3871.18
4282.17
4505.59
3219.87
4270.18
4967
5458.69
5770.81
4151.02
5265.59
5969.21
6531.19
6987.21
4796.93
5913.78
6599
7207.54
7781.97
1275.83
1813.64
2214.33
2480.34
2614.4
1709.13
2400.62
2903.39
3235.6
3405.43
2241.55
3098.82
3704.24
4106.22
4319.36
2845.35
3856.73
4548.71
5018.3
5285.25
3416.33
4537.06
5282.79
5808.58
6136.52
3780.96
4958.74
5731.13
6293.12
6666.27
91.4635
106.567
137.131
186.518
260.279
365.591
101.565
117.557
149.655
200.806
275.198
377.929
84.0126
80.4185
99.5469
97.1304
131.373
131.851
183.565
190.224
261.028
275.97
367.35
385.63
510.669
703.726
963.733
1319.16
1737.31
2039.15
514.151
687.734
901.279
1146.36
1383.33
1534.09
244.406
357.459
447.8
510.567
542.685
284.623
415.945
520.657
593.271
630.385
365.884
533.837
667.167
759.288
806.263
496.903
723.265
901.831
1024.59
1087
691.875
1003.59
1247.37
1413.91
1498.33
968.519
1397.66
1729.27
1954.18
2067.96
271.263
396.414
496.193
565.379
600.737
313.781
458.103
572.872
652.287
692.822
398.962
581.324
725.6
825.027
875.656
534.339
776.347
966.422
1096.7
1162.86
730.391
1056.97
1311.01
1484.04
1571.68
999.317
1438.09
1775.14
2003.16
2118.58
224.578
328.655
411.963
469.93
499.621
215.01
314.746
394.647
450.285
478.799
265.979
388.949
487.172
555.389
590.288
259.569
379.68
475.693
542.42
576.57
350.689
512.052
640.401
729.219
774.549
352.023
514.131
643.157
732.487
778.09
489.333
712.911
889.682
1011.4
1073.33
507.154
739.024
922.423
1048.72
1112.98
694.447
1008.59
1254.95
1423.52
1509
734.308
1066.68
1327.4
1505.75
1596.15
974.548
1409.24
1746.53
1975.67
2091.51
1023.56
1481.14
1836.56
2077.96
2199.88
1345.38
1925.75
2366.62
2663.61
2814.34
1837.01
2595.35
3157.79
3536.04
3731.65
2477.33
3426.89
4108.01
4572.66
4827.41
3304.97
4418.29
5181.07
5730.63
6079.13
4200.8
5361.34
6114.9
6723.51
7212.2
4812.44
5946.23
6650.1
7276.76
7864.71
1352.17
1930.48
2367.47
2661.35
2810.71
1794.55
2533.5
3080.11
3446.84
3635.97
2325.83
3233.09
3886.45
4327.38
4562.89
2915.15
3971.68
4708.78
5216.39
5506.03
3461.07
4613.56
5392.02
5946.38
6292.18
3796.14
4985.38
5769.78
6342.47
6722.52
4782.91
3076.37
683.135
496.022
577.99
488.884
623.608
4324.51
4087.72
2563.98
3276.54
1457.73
2015.56
1185.58
1338.87
1094.44
4037.54
2130.91
1308.13
1144.91
1496.33
1278.63
964.689
906.892
850.192
731.043
1034.96
921.635
4359.43
2565.78
2949.72
1817.24
1466.69
2129.8
989.781
746.843
1105.33
9564.8
9335.59
9192.64
9942.56
15660.9
6692.47
7429.32
7853.77
8546.69
9739
1789.15
2539.53
3100.73
3478.19
3672.04
1310.14
1882.16
2319.65
2614.74
2763.99
1526.98
2193.92
2703.03
3045.04
3217.16
1293.85
1864
2302.19
2597.89
2746.96
1642.39
2349.26
2884.43
3243.48
3425.04
9350.33
10064.5
10279.5
11067
16615.6
9034.49
9931.11
10326.9
11050
12608.6
6002.22
7347.63
8175.3
8905
9643.32
7689.75
8996.42
9537.85
10135.8
10709.8
3679.26
4962.17
5836.16
6424.5
6754.73
4909.76
6317.02
7211
7849.54
8267.08
3049.2
4216.61
5042.19
5586.71
5871.02
3417.99
4677.59
5549.54
6122.95
6426.26
2832.58
3950.36
4751.28
5277.14
5546.08
8685.24
9348.7
9593.34
10403.4
15883.4
5087.07
6392.68
7233.67
7947.73
8628.55
3327.13
4534.92
5376.19
5948.54
6272.62
2932.03
4035.14
4818.75
5353.01
5650.95
3734.55
4970.26
5814.23
6426.59
6834.11
3235.6
4383.1
5183.66
5748.43
6089.39
2483.37
3442.66
4134.36
4607.24
4866.83
2355.2
3302.89
3995.48
4460.68
4704.33
2225.54
3154.5
3842.75
4299.07
4529.68
1920.63
2737.06
3349.54
3758.12
3964.47
2680.52
3743.72
4511.46
5021.5
5286.82
2396.68
3366.87
4076.61
4550.67
4796.54
8995.77
9152.98
9160.29
9939.47
15534.3
5787.03
6751.41
7342.94
8044.69
9006.97
6826.72
7946.66
8466.72
9284.82
11123.2
4384.97
5585.77
6371.98
7025.66
7582.17
3649.55
4836.39
5645.03
6247.08
6656.38
5057.68
6317.66
7132.16
7860.93
8591.84
2551.14
3542.01
4256.89
4743.24
5007.8
1955.93
2775.45
3386.66
3795.88
4004.92
2832.1
3900.58
4661.98
5183.7
5475.57
7220.62
6881.18
6272.74
5359.17
3995.55
1588.87
19834.6
20152.6
22652.4
23445.9
19297.3
20347.7
21544.6
20737.1
16432.7
20831.1
17059.4
21345
19541.2
17559.6
27827.5
18969.9
19136.7
21269.8
21799.4
18146.9
19185.5
20498.1
19926.7
16313
25159.4
16842.8
24899.1
19694.9
21493.3
29839.5
17955.8
17985.7
19477.3
19739.7
17230.5
18710.2
19068.9
19034.5
18641.6
22050.4
19403.1
21987
21337.6
23668.6
26650.3
16957.5
17008.6
17772
17861.6
16605.5
18325.4
17547.6
17808
17294.4
19085.3
18019.8
18518.5
19293.5
21005.4
22733.4
15934.6
16021.5
16557.6
16556.2
16128.8
17988.5
16487.8
16935.8
16215.8
15512.2
16964.3
14807.2
17523.1
17363.1
18472.9
15445.9
15580.7
15729
15691.6
15605.5
17101.4
15786.6
16151.4
15348.7
13142.6
15881.2
12804.3
16132.7
14992.4
16512.2
22171.9
21244.6
23447.8
24721.6
20365.8
20231
21713.8
20606.8
19342.2
14178.3
19253.8
14235.8
17040
15362.7
18417.6
20769.8
20093.2
21523.4
22369.4
19535.2
19580
20356.4
19424.9
17716.8
13546.4
17663.2
13630
15417.1
13682.9
16818.8
18881.7
18471.8
19173
19596.8
18129.9
18187.5
18569.3
17984.7
16540.5
13012.4
16296.2
12755.1
14538.2
12304.4
16188.9
16978.8
16735.6
17250.4
17453.3
16496.4
16488.4
17013.8
16539.9
15200.1
12976.4
15061.2
12685.6
13586.8
12074.6
15991.9
15851.9
15684
16087.6
16195.1
15335.3
15325.1
16005.1
15682.8
14611.4
13571.8
14514.9
13422.8
13348
12302.6
16091.2
15037.4
14885.3
15367.5
15441.4
14618.8
14811.6
15268.8
15107.5
14275.8
13935.4
14242.3
13862.5
13221.7
12623.1
16475.3
12160.3
6902.54
19961.2
13141
21856.3
16186.3
34156.2
42548.5
44999.4
55263.6
29189.2
25384.5
18500.3
14737
9030.73
6016.42
20540.4
20802.2
17783.2
20782.1
27750.9
24535
32237.2
25848.9
8480.94
6042.19
4723.94
3536.56
10265.3
8343.41
6294.92
5144.17
19109
19656.2
19345.4
16030.9
14832.2
11784.7
11791.6
13450.6
18970.7
18944.5
40121
41551.8
28191.4
29127.8
16381.9
13817.3
17678.6
12571.1
8224.94
8495.06
6759.68
9870.66
3515.96
4357.14
9409.22
13363.1
5654.61
6716.39
10319.5
17997.3
7202.46
12045.2
2727.11
7121.15
2270.84
5296.21
18232.3
22609.2
19010.9
22633.7
22223.5
22366.1
22829.7
22203.3
16312.5
22214.9
16592.6
21862.2
18815.7
22549.3
18860.7
22538
23137.6
21995.5
23122.5
21827.1
15133
22351.7
14645.1
22459.2
18847.8
22503.2
23792.5
33746.2
19986.4
26197.8
23603
36920.6
17860.6
19712.2
23868
32315.7
17677.7
18407.1
24125.1
32023.2
5926.87
7906.18
15259.4
27262.4
7381.88
8492.39
19718.5
30932.4
9046.21
9172.44
24702.7
33974.9
25245
26603.2
21831.3
21544.1
32255.9
26645.2
25542.6
22202.6
19584.9
37204.8
24349.8
24376.5
22122.1
22614.5
42020.2
2224.94
2710.23
4848.26
11590.5
3197.06
3673.24
6724.66
12890
4683.24
3983.02
8988.44
14460
26068.8
25217.9
23813.3
22896.1
20926.3
18657.2
16067.4
13977.7
11668.7
16660.9
23890.7
22637.2
24422.7
23620.1
21609.5
19937.9
18269.7
16213.3
12361.5
16619.9
24407.2
27352.7
24406
28133.5
23295.5
23926.1
22820.7
24229.6
22546.6
22877.7
22341.3
22169.3
24246.1
28294.7
24169.8
28308.2
22199.5
24597.6
22050
24579.8
22636.1
22826.2
22653
22831.6
19234.4
18263.7
12488.9
14003.7
19129.2
17820.5
12326.5
14171.6
19480.9
18184.7
12748.2
14008.2
19561.3
17996.5
13141.6
13997.2
1763.26
1132.86
755.288
997.711
640.791
589.149
2515.62
1401.13
1018.32
1950.39
1505.35
1251.21
2816.24
2177.23
2114.39
3385.59
2656.72
2329.15
23346.4
20305.6
18294
21752.2
19473.5
17799.3
15772.6
14122.4
13203.1
10983.6
9093.25
8268.18
5191.12
3626.16
2982.24
21289.9
18942.7
17135.5
22204.9
19429.9
17429.1
16715.6
13710.8
12044.2
11078.7
8409.45
7307.82
5497.71
3587.98
2787.03
27881.8
27083.1
30539.8
27209.8
31482
27223.2
38246
28843.3
21226.3
21452.2
20987.2
19453.9
24014.6
22398.3
23675.7
20073.9
23471.9
23156.5
21580.3
22919.7
28395.1
25693.6
28786.1
29305.8
31467
32634.9
23872.7
24845.7
21364.9
20777.5
25830.6
26565.8
16537.2
8961.89
15533.7
9913.46
16784
9033.73
15507.6
9845.98
16578
9074.91
15495.5
10259.3
15120.7
10733.9
15330.9
10641.8
21460
18151.9
21485.2
18217.9
23836.8
21371
24242.3
21264.9
20927.2
15078
21680.2
14804.4
22065.5
18186.7
22395.5
17999.1
24984
21157.3
25058.9
20914.6
20818.3
15165.2
20801.6
15080.7
13630.9
9110
11870.2
7748.05
12622.8
8157.07
11357.7
7243.19
14016.1
9678.86
12089.5
7985.6
14056.7
10015.2
12065.1
8042.66
2589.55
1350.73
4811.56
2685.08
2768.59
1659.21
5132.79
3194.54
3386.44
2473.82
5664.39
4108.97
12972.8
20290
9339.55
8962.83
6510.88
19741.5
13596.6
7918.66
7971.77
5376.58
20708.5
16148.4
12747.1
9898.53
6359.44
721.096
516.567
1619.75
1225.44
1014.29
678.636
2209.62
1756
1722.62
1270.8
3105.5
2514.11
19822.6
18762.4
13249.7
12353.7
8514.74
8290.61
7156.14
6304.64
4588.87
3719.72
18727.1
16665.2
14332.5
12230.6
11039.9
9460.64
8373.99
7248.41
5579.89
5269.38
14830.1
11637.4
15000.8
11456.4
18065
14701
18127.7
14632.9
12395.9
9704.79
11972.3
9660.75
15056.2
11336.8
14978
11332.8
18113.4
14987
17963.6
14967.9
12654.2
9598.85
12637.9
9726.89
9598.58
7801.8
6542.01
6553.76
9213.93
7578.93
6244.02
6178.27
10021.1
7976.87
6714.13
6926.58
10251.3
7976.27
6969.07
7024.44
1401.56
1212.11
993.198
6033.82
3189.88
2580.63
1395.57
1351.81
1187.35
6653.48
3845.02
3227.42
1949.82
2139.66
2163.81
7474.76
4872.58
4287.49
17058.8
15368.1
14253.4
11390.1
10618.2
10170
8110.99
7699.53
7532.95
6753.69
6304.71
6033.15
8642.79
6082
5413.32
14664
12947
11853.4
10622.6
9441.2
8790.5
8586.76
7615.43
7097.93
8001.84
6834.41
6187.74
10598.7
6887.55
6065.27
4935.08
2992.91
1943.94
1378.26
5527.4
3236.51
2045.6
1414.79
4963.01
2994.19
1949.91
1387.43
5647.45
3306.2
2094.53
1442.81
4960.58
2972.41
1973.6
1402.86
5765.92
3352.54
2162.23
1473.75
6194.12
3540.32
2184.02
1493.42
6368.75
3669.99
2237.69
1534.03
5280.29
3162.43
2061.44
1432.84
4400.69
2813.09
1908.02
1371.26
4665.84
2882.19
1938.4
1354.88
4075.81
2661.04
1836.78
1323.35
5693.52
3374.01
2143.27
1480.59
4596.64
2924.01
1952.13
1407.29
5924.94
3517.71
2204.77
1522.48
4684.54
3003.63
1992.81
1436.06
3774.92
2592.01
1786.62
1313.04
2560.98
2119.45
1595.19
1234.14
3793.1
2584.38
1787.38
1312.53
2671.48
2150.05
1605.65
1241.75
3892.06
2590.93
1807.92
1327.66
2988.65
2243.97
1643.88
1271.02
3867.94
2542.77
1788.03
1357.99
3266.66
2313.21
1696.85
1274.82
3643.98
2484.2
1757.02
1304.95
1396.94
1743.99
1292.35
393.85
160.143
1539.3
1174.34
404.733
1614.08
1817.15
1322.31
414.651
412.947
1620.25
1200.39
413.577
2025.38
1946.79
1365.19
413.738
851.487
1755.96
1236.52
418.314
2539.21
2104.61
1435.37
448.561
1336.62
1910.49
1291.22
436.378
2900.24
2253.86
1523.45
517.55
1513.57
2034.12
1342.93
452.406
3113.78
2425.18
1561.54
496.657
1337.06
2180.52
1441.24
481.278
3029.14
2349.82
1533.62
495.978
1276.17
2113.22
1391.12
464.333
3150.81
2478.03
1576.8
466.047
1311.63
2236.54
1471.58
484.11
3215.82
2531.21
1614.51
474.608
1410.54
2292.88
1508.22
495.087
1070.02
734.152
460.874
249.761
78.7253
1060.35
732.856
461.249
250.113
78.8418
1084.74
741.291
464.046
251.126
79.1083
1080.08
741.963
465.461
251.968
79.3671
1113.18
750.841
467.943
252.77
79.5684
1104.54
752.028
470.121
254.036
79.956
1118.66
763.194
476.175
256.888
80.7838
1144.41
778.888
484.634
260.898
81.953
1141.48
762.18
473.461
255.276
80.2872
1215.05
775.58
477.14
256.565
80.6265
1146.87
759.164
470.833
253.908
79.88
1213.28
770.667
474.229
255.172
80.2197
1151.16
771.949
478.866
257.841
81.0338
1237.43
785.034
482.031
258.866
81.2963
1178.2
787.239
486.814
261.571
82.119
1266.05
798.682
488.896
262.075
82.2297
1097.12
737.719
460.828
249.47
78.6199
1149.85
741.864
460.933
249.304
78.5567
1111.27
743.404
463.221
250.477
78.9
1161.44
746.212
462.778
250.082
78.7733
1138.73
752.394
466.797
251.978
79.3189
1185.12
753.702
465.894
251.412
79.1454
1181.21
762.479
470.377
253.44
79.7244
1213.45
761.713
469.404
252.943
79.5774
1220.87
767.641
472.379
254.291
79.9628
11556.6
17948.4
12061.9
18207.9
12682.9
18402.9
12999.6
18400.7
12259.2
17427.6
11075.8
12528
11182.3
13307.5
11087.1
12332.1
11259.3
12444.2
10356.3
1769.84
379.291
85.449
15.1888
11538.8
3291.46
801.786
182.66
32.4489
10399.4
1757.84
374.828
84.1827
14.9277
11569.7
3264.37
793.068
179.932
31.7051
10372.9
1730.73
366.418
82.0217
14.5231
11512.4
3219.22
778.873
176.225
31.0243
10125.9
1655.09
347.709
77.7218
13.7628
11222.3
3113.38
751.394
169.884
29.8968
9447.43
1505.53
315.92
70.9025
12.5929
10481.1
2915.51
706.527
160.318
28.2712
8178.28
1355.68
294.056
67.1595
12.0323
8380.56
2452.36
611.16
141.198
25.1682
8569.09
1397.78
299.561
67.96
12.1315
9010.45
2631.41
649.636
148.799
26.3682