/*--------------------------------*- C++ -*----------------------------------*\
  =========                 |
  \\      /  F ield         | OpenFOAM: The Open Source CFD Toolbox
   \\    /   O peration     | Website:  https://openfoam.org
    \\  /    A nd           | Version:  11
     \\/     M anipulation  |
\*---------------------------------------------------------------------------*/
FoamFile
{
    format      ascii;
    class       volScalarField;
    location    "1.4";
    object      T;
}
// * * * * * * * * * * * * * * * * * * * * * * * * * * * * * * * * * * * * * //

dimensions      [0 0 0 1 0 0 0];

internalField   nonuniform List<scalar> 
5712
(
536.399
553.774
525.3
546.296
509.373
536.068
482.089
513.609
481.761
506.698
506.185
530.664
521.024
542.262
530.796
549.748
500.018
478.575
521.245
490.313
470.886
448.668
491.968
458.911
544.855
552.707
558.629
562.98
533.926
543.64
551.96
558.148
534.493
518.098
510.607
499.719
530.279
545.506
541.702
541.366
501.176
505.582
517.009
516.016
469.355
472.932
549.028
551.332
522.222
528.736
558.648
561.589
557.899
566.889
566.341
570.457
550.531
563.933
562.684
568.974
535.851
557.557
548.482
563.78
557.678
567.395
561.238
568.668
463.165
450.524
471.272
453.438
430.641
419.487
438.947
422.535
499.898
483.136
492.141
479.936
477.007
454.857
478.509
454.687
444.608
424.119
446.073
424.041
505.356
484.675
506.886
484.648
525.325
554.704
512.437
545.495
517.947
550.274
508.473
541.814
530.474
557.226
514.382
547.424
532.112
558.15
514.609
548.284
550.195
535.026
562.593
551.489
539.518
524.502
558.226
545.749
523.688
509.95
550.665
537.451
446.832
409.235
479.766
507.047
541.388
403.22
440.512
473.045
498.528
530.106
409.055
443.283
474.478
502.62
534.598
508.051
484.529
513.404
490.901
502.073
480.191
511.624
489.018
492.876
472.523
508.986
486.802
392.362
378.766
430.36
415.533
461.156
444.559
485.319
466.825
508.529
487.961
397.015
382.259
432.378
419.922
463.641
450.096
490.468
474.59
513.481
495.701
437.197
430.882
436.157
430.648
402.223
382.568
402.584
382.453
467.378
465.142
468.432
464.378
433.921
430.011
433.905
430.315
401.977
382.803
402.111
383.159
464.86
464.548
464.874
464.979
496.527
494.179
520.291
517.128
496.218
491.596
519.162
513.327
495.425
494.439
520.59
518.421
494.153
493.765
519.518
517.529
459.521
440.564
430.808
462.776
442.344
432.23
456.858
437.591
427.428
461.19
440.085
429.446
449.67
430.351
420.076
459.011
436.404
424.934
364.096
353.517
348.286
398.203
383.115
374.98
424.881
406.209
395.794
444.087
423.426
412.411
458.831
433.705
420.676
366.149
353.155
346.639
404.429
387.789
378.573
431.185
410.401
398.469
450.542
425.613
411.707
462.759
434.153
418.816
401.545
392.373
407.383
398.266
434.352
418.328
445.46
426.328
376.611
353.618
377.813
355.523
378.003
356.491
379.849
358.472
379.437
375.525
378.803
373.307
360.003
363.517
402.483
405.258
432.07
434.923
382.706
387.048
382.657
385.236
366.518
369.58
331.519
313.752
336.708
316.883
334.203
314.358
339.236
317.862
338.499
315.221
345.34
319.814
349.095
322.723
350.798
324.416
374.503
364.891
382.143
368.465
400.628
389.95
408.483
393.397
361.112
347.363
353.907
343.941
386.451
370.437
388.221
370.986
413.254
395.238
414.856
395.464
365.112
349.347
366.947
350.067
341.094
317.375
330.347
312.278
334.667
313.704
327.314
310.153
344.953
320.104
332.16
313.634
346.968
321.926
332.929
314.35
315.52
305.219
307.585
301.055
317.828
307.85
307.986
301.833
322.255
313.661
309.036
303.961
355.124
378.347
338.014
325.325
309.122
373.136
350.392
331.59
319.701
305.788
378.077
355.029
336.774
322.622
307.542
297.228
290.324
295.019
288.939
300.019
292.832
296.286
290.225
305.598
297.932
298.777
292.624
362.441
349.981
340.474
329.168
324.191
314.82
312.821
304.426
301.758
295.439
366.161
351.198
344.318
330.842
328.066
316.832
315.529
305.707
303.612
296.583
348.738
331.041
352.026
333.319
371.427
351.255
374.215
352.521
334.341
319.239
331.346
316.944
354.719
334.773
355.406
335.388
376.114
353.246
376.576
353.744
336.982
320.834
337.676
321.389
318.975
306.701
305.296
296.546
317.338
304.998
304.516
295.875
320.381
307.937
305.813
296.84
321.816
308.634
306.687
297.659
283.496
280.214
278.932
279.624
277.062
276.192
286.029
282.297
280.813
280.841
278.104
277.09
290.861
286.552
284.755
282.794
279.498
278.23
337.696
329.377
325.435
318.911
312.444
309.578
306.114
300.627
298.384
296.072
290.77
288.465
284.304
280.305
278.717
336.859
326.513
321.878
318.655
310.153
306.445
306.308
299.183
296.197
295.61
289.668
287.36
283.602
279.752
278.253
299.536
290.34
284.648
280.857
300.869
290.822
284.772
280.826
299.629
290.412
284.723
280.92
301.339
291.056
284.948
280.965
299.623
290.474
284.932
281.146
301.706
291.283
285.241
281.218
302.935
291.87
285.331
281.154
303.923
292.446
285.571
281.257
300.883
291.121
285.285
281.33
299.244
290.741
285.312
281.636
299.273
290.458
285.117
281.422
298.299
290.282
285.133
281.645
302.182
291.723
285.455
281.335
300.011
291.151
285.497
281.734
303.176
292.256
285.704
281.496
300.627
291.518
285.724
281.92
297.38
289.607
284.519
281.005
294.879
288.782
284.356
281.231
297.407
289.642
284.586
281.077
295.093
288.875
284.409
281.283
297.55
289.737
284.732
281.241
295.698
289.119
284.54
281.389
297.432
289.782
284.873
281.464
296.19
289.344
284.703
281.544
297.254
289.834
284.988
281.695
292.9
288.185
284.07
281.626
291.774
287.892
283.968
281.74
293.331
288.342
284.15
281.682
292.244
288.061
284.042
281.784
294.123
288.641
284.275
281.76
293.062
288.367
284.165
281.858
295.096
289.031
284.493
281.895
294.009
288.745
284.342
281.965
296.041
289.48
284.759
282.045
294.83
289.147
284.545
282.091
297.336
290.28
285.141
282.254
296.032
289.958
285.02
282.393
296.746
289.901
284.947
282.141
295.462
289.567
284.779
282.237
297.828
290.622
285.299
282.355
296.554
290.337
285.237
282.544
298.313
290.949
285.504
282.506
297.07
290.697
285.464
282.709
277.99
276.211
275.052
274.367
274.052
277.988
276.215
275.054
274.369
274.053
278.025
276.228
275.06
274.371
274.055
278.033
276.236
275.065
274.374
274.057
278.073
276.248
275.069
274.377
274.058
278.086
276.262
275.078
274.381
274.061
278.148
276.296
275.095
274.391
274.068
278.236
276.343
275.12
274.404
274.077
278.134
276.279
275.085
274.385
274.064
278.195
276.297
275.092
274.389
274.066
278.113
276.264
275.076
274.38
274.061
278.167
276.281
275.084
274.384
274.063
278.189
276.309
275.101
274.394
274.069
278.247
276.325
275.107
274.396
274.071
278.273
276.354
275.124
274.406
274.078
278.322
276.363
275.127
274.407
274.078
278.002
276.21
275.049
274.366
274.051
278.017
276.209
275.048
274.365
274.051
278.029
276.222
275.055
274.369
274.053
278.038
276.219
275.053
274.367
274.052
278.074
276.241
275.064
274.374
274.056
278.076
276.235
275.061
274.372
274.055
278.123
276.26
275.073
274.378
274.059
278.117
276.254
275.07
274.376
274.058
278.149
276.27
275.078
274.381
274.061
521.677
518.118
521.543
518.045
521.732
518.424
523.018
519.824
526.42
523.247
532.628
532.963
530.739
529.955
533.439
534.208
533.703
534.348
562.571
570.757
572.491
572.886
572.971
553.742
568.328
571.938
572.765
572.943
562.717
570.802
572.503
572.888
572.972
553.948
568.4
571.953
572.771
572.944
562.877
570.851
572.515
572.891
572.972
554.225
568.485
571.975
572.776
572.945
563.323
570.961
572.541
572.897
572.974
554.834
568.642
572.011
572.784
572.947
564.197
571.146
572.581
572.906
572.976
555.975
568.899
572.066
572.795
572.949
565.053
571.272
572.602
572.909
572.976
558.674
569.456
572.179
572.817
572.954
564.814
571.241
572.598
572.909
572.976
557.63
569.232
572.134
572.809
572.953
565.139
571.283
572.604
572.91
572.976
559.191
569.581
572.205
572.822
572.955
565.227
571.304
572.609
572.911
572.977
559.321
569.627
572.214
572.824
572.956
416.316
454.524
452.13
411.961
394.486
396.039
398.045
401.044
410.405
414.599
442.313
452.114
450.82
461.332
425.329
430.212
412.302
415.904
405.126
407.31
357.071
339.027
294.187
288.774
290.792
288.387
292.292
353.178
345.801
329.291
334.235
329.866
310.435
319.501
314.934
305.09
308.181
303.457
350.878
324.198
308.278
305.159
312.639
308.855
301.777
299.875
297.643
294.738
302.195
299.835
353.585
332.002
339.648
320.7
313.434
325.278
302.123
295.555
304.615
339.001
323.89
311.023
297.91
283.004
328.255
317.443
306.081
294.084
280.741
291.961
288.896
284.96
280.419
275.515
287.17
284.927
282.002
278.594
274.897
288.972
286.43
283.125
279.285
275.13
286.83
284.646
281.793
278.464
274.853
290.296
287.525
283.94
279.788
275.3
335.954
320.578
307.826
295.364
282.037
329.361
314.729
302.795
291.391
279.519
320.342
310.703
300.468
289.944
278.911
320.91
308.419
297.883
287.907
278.076
317.636
305.882
295.909
286.561
277.538
305.66
299.693
292.666
285.045
277.068
312.64
304.767
296.089
287.058
277.759
308.93
301.862
293.945
285.682
277.255
301.281
296.324
290.292
283.617
276.582
303.739
298.135
291.497
284.299
276.802
299.915
295.249
289.519
283.145
276.421
335.221
320.7
308.286
295.785
282.215
316.884
308.52
299.2
289.279
278.685
304.01
298.536
291.94
284.659
276.949
301.425
296.539
290.543
283.833
276.673
307.652
301.442
294.099
286.043
277.456
304.598
299.119
292.469
285.05
277.101
298.575
294.303
288.959
282.889
276.357
296.932
292.959
287.951
282.252
276.134
294.984
291.357
286.75
281.497
275.873
292.449
289.293
285.242
280.582
275.567
298.889
294.488
289.021
282.877
276.339
296.882
292.9
287.89
282.202
276.115
337.002
322.452
309.926
297.132
282.827
323.036
313.49
303.138
292.068
279.868
328.829
317.094
305.712
293.776
280.58
314.432
306.946
298.279
288.779
278.472
308.463
302.224
294.779
286.521
277.629
317.934
309.513
300.06
289.91
278.935
298.869
294.531
289.114
282.975
276.384
293.161
289.877
285.678
280.854
275.66
300.987
296.217
290.334
283.719
276.637
498.388
539.73
491.317
534.326
466.548
514.448
473.298
519.863
479.073
464.421
512.766
483.213
453.08
437.7
484.79
453.432
516.252
531.477
548.8
555.816
509.467
524.285
544.56
552.279
526.419
498.87
503.353
484.981
513.587
538.779
539.074
540.741
498.163
504.814
514.607
515.398
467.001
472.306
546.304
550.718
519.221
527.998
556.564
561.15
546.578
563.232
562.323
569.124
539.689
560.433
559.171
567.752
525.565
554.305
543.414
562.102
555.849
566.756
560.868
568.531
457.764
449.469
467.725
452.895
428.185
420.56
436.994
423.157
495.822
482.146
485.557
478.102
475.302
454.647
478.054
454.655
443.661
424.49
445.835
424.187
503.394
484.223
506.351
484.535
522.189
553.665
511.637
545.263
512.922
548.641
507.048
541.443
528.94
556.693
514.001
547.305
531.687
557.993
514.508
548.25
531.925
514.901
556.95
545.195
523.118
507.061
553.111
540.307
510.273
496.35
546.559
533.476
447.617
418.734
474.738
501.333
539.568
415.359
442.663
467.61
491.841
528.245
416.383
444.549
472.573
500.617
534.19
491.402
475.234
508.719
493.501
487.399
471.958
508.178
492.439
481.032
466.091
507.28
491.254
407.607
397.799
434.656
423.407
458.266
445.367
481.253
466.87
509.035
493.338
407.309
395.321
436.203
427.274
463.966
454.574
490.303
478.621
514.598
500.502
438.99
434.564
437.246
432.743
406.988
390.064
405.012
386.403
467.682
466.223
468.68
466.235
434.534
431.047
434.104
430.624
403.185
384.683
402.486
383.713
465.086
465.108
464.955
465.147
496.629
494.84
520.543
517.743
496.221
492.946
519.588
514.705
495.515
494.756
520.723
518.691
494.188
493.865
519.558
517.604
465.241
460.845
480.44
474.533
462.026
456.961
479.096
472.106
455.874
450.591
477.186
468.61
389.388
383.599
414.436
407.983
435.667
428.551
455.928
448.663
477.117
465.579
384.144
377.265
419.106
411.047
444.369
434.42
464.341
451.997
478.652
463.588
396.809
390.056
406.448
397.604
423.722
411.823
441.935
423.304
378.02
358.139
381.875
360.612
377.684
360.227
382.076
362.571
380.638
375.245
380.042
374.335
363.12
366.388
402.282
405.222
430.741
434.56
383.484
387.298
383.432
385.505
368.307
370.2
342.53
323.897
344.257
324.901
344.212
323.764
345.53
324.715
347.403
323.591
350.168
325.377
351.885
326.131
351.751
325.591
379.15
370.848
384.103
371.754
401.744
393.739
408.502
395.473
364.755
351.358
361.227
350.909
387.385
372.142
388.515
371.533
413.237
396.322
414.879
395.825
366.93
351.449
367.506
350.735
346.14
322.1
334.43
315.748
343.621
320.76
334.122
315.488
347.588
322.841
334.361
315.597
347.78
322.814
333.631
314.986
339.121
334.57
321.499
317.703
340.691
336.373
321.192
317.582
343.235
339.809
320.795
317.793
373.337
394.1
356.528
340.46
318.681
392.299
373.051
356.092
339.572
317.182
390.49
368.992
349.819
333.425
314.942
329.143
322.977
312.68
305.15
331.498
325.604
313.073
305.826
335.293
329.83
313.722
306.804
385.285
376.691
366.625
359.34
350.345
344.569
334.209
328.381
313.332
306.656
381.829
369.315
361.204
349.764
343.22
333.218
327.584
318.14
311.308
303.914
357.324
341.228
356.426
338.59
379.029
361.392
377.951
357.676
338.814
324.046
339.543
325.822
356.85
337.294
356.054
336.127
377.886
355.688
377.114
354.456
339.218
323.178
338.361
322.081
322.959
310.532
308.33
299.213
324.27
311.78
309.426
300.315
322.472
309.873
307.477
298.258
322.488
309.236
307.21
298.088
317.957
316.213
292.849
291.698
321.219
319.11
293.757
292.451
325.43
321.98
294.783
292.012
369.149
363.802
352.791
348.29
339.077
335.356
322.272
317.414
293.992
289.547
358.311
353.007
339.88
335.493
324.261
320.564
308.47
304.807
289.026
285.661
305.945
294.013
286.722
282.028
306.451
294.134
286.677
281.912
305.593
293.856
286.659
281.996
306.187
293.972
286.635
281.924
304.91
293.572
286.703
282.13
305.649
293.688
286.668
282.039
305.474
293.457
286.278
281.704
304.82
293.015
285.913
281.459
304.119
293.128
286.509
282.067
301.746
292.358
286.348
282.314
303.749
293.146
286.716
282.353
301.958
292.572
286.535
282.509
304.165
292.981
286.237
281.821
301.481
292.121
286.138
282.176
303.847
292.687
285.974
281.665
301.114
291.843
285.941
282.073
304.964
293.756
286.825
282.311
303.524
293.394
286.896
282.701
304.614
293.62
286.797
282.317
303.32
293.312
286.856
282.693
304.045
293.396
286.787
282.386
303.03
293.173
286.797
282.685
303.031
293.037
286.745
282.524
302.571
292.981
286.756
282.718
302.016
292.704
286.686
282.705
302.097
293.086
286.737
283.33
301.119
292.917
286.737
283.583
302.05
293.039
286.724
283.328
301.093
292.872
286.714
283.57
301.9
292.933
286.649
283.278
300.971
292.773
286.644
283.53
301.573
292.753
286.601
283.246
300.68
292.609
286.569
283.486
300.984
292.485
286.544
283.224
300.105
292.373
286.469
283.431
299.701
291.86
286.167
282.995
298.597
291.709
286.141
283.205
300.287
292.174
286.36
283.114
299.292
292.054
286.321
283.334
299.19
291.557
285.923
282.823
298.01
291.365
285.91
283.038
298.756
291.257
285.712
282.664
297.535
291.03
285.685
282.872
278.59
276.526
275.215
274.456
274.111
278.559
276.517
275.212
274.455
274.11
278.571
276.515
275.209
274.453
274.108
278.531
276.5
275.203
274.45
274.106
278.555
276.5
275.201
274.448
274.105
278.499
276.48
275.192
274.443
274.102
278.435
276.448
275.175
274.434
274.096
278.344
276.401
275.15
274.421
274.087
278.505
276.474
275.186
274.44
274.1
278.524
276.468
275.181
274.437
274.098
278.553
276.492
275.195
274.445
274.103
278.561
276.485
275.19
274.441
274.101
278.444
276.444
275.171
274.432
274.095
278.47
276.441
275.168
274.43
274.093
278.362
276.4
275.149
274.42
274.086
278.399
276.404
275.148
274.419
274.086
278.634
276.537
275.219
274.458
274.112
278.673
276.544
275.221
274.459
274.112
278.622
276.528
275.214
274.455
274.11
278.663
276.537
275.217
274.457
274.111
278.606
276.515
275.206
274.451
274.107
278.644
276.525
275.21
274.453
274.108
278.597
276.503
275.199
274.447
274.104
278.618
276.51
275.202
274.448
274.105
278.586
276.495
275.195
274.444
274.103
521.965
520.174
522.289
520.467
523.134
521.29
524.848
522.841
527.976
525.77
533.035
533.496
531.524
531.09
533.635
534.442
533.761
534.415
562.857
570.84
572.512
572.89
572.972
554.456
568.512
571.981
572.775
572.945
563.044
570.887
572.523
572.893
572.973
554.727
568.59
571.997
572.78
572.946
563.26
570.939
572.535
572.896
572.973
555.08
568.68
572.018
572.785
572.947
563.715
571.043
572.559
572.901
572.975
555.69
568.829
572.051
572.792
572.949
564.502
571.21
572.595
572.909
572.977
556.692
569.056
572.1
572.802
572.951
565.15
571.296
572.608
572.911
572.977
558.903
569.518
572.194
572.821
572.955
564.992
571.282
572.608
572.911
572.977
558.066
569.339
572.159
572.814
572.954
565.187
571.296
572.607
572.91
572.977
559.297
569.611
572.213
572.824
572.956
565.241
571.308
572.61
572.911
572.977
559.352
569.636
572.216
572.825
572.956
416.104
453.967
450.263
411.33
403.128
409.881
400.779
409.157
431.632
449.743
435.651
451.658
276.288
276.724
277.688
279.271
281.625
284.928
276.645
277.103
278.109
279.742
282.115
285.354
276.022
275.892
276.477
276.388
277.487
277.495
279.165
279.372
281.634
282.109
284.923
285.439
289.367
295.075
302.282
311.113
319.802
325.519
289.571
294.795
300.948
307.576
313.509
317.204
275.972
275.52
274.916
274.197
273.407
276.366
275.853
275.167
274.353
273.46
277.234
276.586
275.723
274.699
273.578
278.659
277.788
276.632
275.265
273.769
280.775
279.57
277.977
276.101
274.053
283.734
282.053
279.846
277.26
274.446
276.294
275.792
275.122
274.325
273.45
276.707
276.14
275.385
274.489
273.506
277.613
276.905
275.963
274.849
273.628
279.081
278.142
276.898
275.43
273.825
281.211
279.933
278.249
276.269
274.11
284.111
282.364
280.077
277.402
274.494
275.732
275.317
274.762
274.101
273.374
275.615
275.218
274.686
274.054
273.358
276.143
275.664
275.025
274.265
273.43
276.062
275.596
274.973
274.233
273.419
277.054
276.434
275.608
274.628
273.553
277.061
276.441
275.613
274.631
273.554
278.565
277.71
276.574
275.229
273.757
278.753
277.869
276.694
275.304
273.783
280.786
279.581
277.987
276.107
274.055
281.214
279.942
278.26
276.277
274.113
283.735
282.058
279.852
277.264
274.447
284.2
282.45
280.148
277.448
274.509
287.693
285.358
282.323
278.793
274.965
292.742
289.543
285.444
280.721
275.618
299.038
294.704
289.273
283.09
276.426
306.593
300.807
293.782
285.906
277.406
313.772
306.488
297.975
288.58
278.381
318.396
310.111
300.655
290.314
279.032
287.868
285.5
282.427
278.857
274.986
292.496
289.339
285.294
280.629
275.587
297.898
293.788
288.602
282.675
276.283
303.648
298.479
292.078
284.833
277.023
308.719
302.576
295.108
286.727
277.682
311.852
305.096
296.975
287.903
278.096
276.337
276.88
277.973
279.723
282.303
285.908
276.698
277.27
278.409
280.207
282.782
286.257
276.07
275.941
276.631
276.545
277.773
277.794
279.632
279.876
282.358
282.897
286.031
286.7
290.695
296.694
304.046
312.709
320.894
325.904
290.712
296.112
302.306
308.77
314.324
317.493
276.017
275.558
274.945
274.215
273.413
276.507
275.973
275.26
274.411
273.48
277.493
276.807
275.891
274.805
273.614
279.071
278.139
276.901
275.434
273.827
281.392
280.097
278.381
276.355
274.14
284.628
282.819
280.435
277.631
274.572
276.343
275.834
275.153
274.345
273.457
276.858
276.27
275.484
274.551
273.527
277.885
277.137
276.141
274.961
273.666
279.504
278.503
277.175
275.604
273.885
281.818
280.453
278.647
276.52
274.195
284.935
283.07
280.62
277.745
274.611
275.776
275.354
274.79
274.119
273.38
275.66
275.256
274.715
274.072
273.365
276.282
275.783
275.116
274.322
273.449
276.205
275.718
275.066
274.291
273.439
277.313
276.655
275.777
274.734
273.589
277.332
276.672
275.79
274.742
273.592
278.99
278.072
276.851
275.403
273.817
279.21
278.259
276.993
275.492
273.847
281.444
280.144
278.418
276.379
274.148
281.931
280.556
278.731
276.574
274.214
284.745
282.924
280.517
277.684
274.59
285.35
283.436
280.907
277.927
274.673
288.908
286.403
283.13
279.304
275.139
294.231
290.831
286.445
281.358
275.837
300.673
296.132
290.392
283.808
276.674
308.092
302.135
294.838
286.592
277.646
314.813
307.423
298.729
289.078
278.559
318.767
310.447
300.928
290.496
279.098
288.912
286.398
283.121
279.296
275.137
293.705
290.384
286.104
281.144
275.764
299.152
294.878
289.452
283.219
276.47
304.758
299.451
292.842
285.325
277.193
309.483
303.25
295.642
287.074
277.803
312.123
305.337
297.167
288.028
278.14
357.689
339.545
296.236
290.328
293.185
290.185
294.564
362.186
359.535
338.238
349.572
317.401
328.863
311.02
314.969
308.725
356.481
330.196
313.805
309.475
317.662
312.518
304.231
303.042
301.778
298.057
306.936
303.624
355.591
333.531
343.392
323.06
316.485
329.7
305.131
298.372
308.292
339.678
324.525
311.57
298.306
283.163
328.777
317.929
306.489
294.368
280.849
293.845
290.527
286.226
281.225
275.792
288.592
286.15
282.946
279.191
275.101
291.162
288.315
284.58
280.206
275.445
288.474
286.059
282.882
279.153
275.088
292.381
289.325
285.334
280.672
275.603
345.831
329.871
315.605
300.702
284.087
344.071
328.343
313.968
298.814
282.111
329.264
318.95
307.221
294.424
280.506
337.273
323.338
310.038
295.911
280.886
312.299
305.634
297.412
288.126
278.139
321.808
313.126
302.857
291.493
279.309
306.87
301.279
294.22
286.153
277.46
310.283
304.046
296.25
287.397
277.882
304.894
299.68
293.043
285.426
277.212
341.222
326.446
313.17
299.192
283.578
322.738
313.87
303.56
292.169
279.717
309.227
303.17
295.622
287.041
277.777
305.467
300.106
293.362
285.65
277.303
312.425
305.71
297.514
288.268
278.235
308.042
302.171
294.893
286.62
277.648
300.855
296.299
290.527
283.896
276.705
299.868
295.523
289.959
283.536
276.577
298.802
294.676
289.339
283.148
276.441
295.498
291.929
287.287
281.881
276.013
303.314
298.377
292.082
284.843
277.018
300.399
295.973
290.298
283.744
276.646
339.175
324.488
311.673
298.382
283.337
324.551
314.887
304.297
292.858
280.163
332.643
320.666
308.716
295.841
281.348
316.7
308.997
299.943
289.881
278.866
311.352
304.803
296.842
287.868
278.101
322.246
313.462
303.293
292.066
279.71
301.667
296.983
291.041
284.212
276.811
295.758
292.131
287.432
281.971
276.044
304.423
299.243
292.721
285.257
277.17
278.49
289.172
299.133
307.991
315.211
320.772
477.764
471.532
447.175
453.207
461.547
452.253
437.291
426.484
498.077
514.368
491.322
505.84
481.523
472.599
493.486
467.118
462.093
438.488
443.307
453.691
445.551
430.329
421.132
487.123
498.592
481.249
491.202
472.145
463.943
480.526
452.273
448.645
426.338
429.816
442.197
435.685
420.127
412.471
470.444
481.268
465.799
475.503
458.889
452.059
466.944
436.841
434.216
413.582
416.184
429.158
423.614
408.686
402.203
454.531
465.939
450.851
461.259
445.304
438.816
453.777
425.611
423.524
404.272
406.429
419.214
414.477
400.079
394.236
442.454
454.7
439.359
450.981
434.965
429.299
444.539
417.983
416.162
397.913
399.843
412.367
408.308
394.079
388.712
434.51
448.567
431.713
444.96
428.135
423.167
438.544
396.233
393.135
419.323
423.725
388.862
383.578
412.192
403.526
373.569
353.21
372.729
355.002
369.145
368.692
357.81
391.754
388.883
413.071
416.874
384.911
380.025
406.799
398.831
368.899
349.455
368.212
351.364
364.869
364.857
353.908
384.651
382.149
403.754
406.776
378.668
374.243
398.615
391.828
364.114
344.955
363.362
346.637
360.368
360.274
348.916
375.958
373.823
393.255
395.674
370.62
366.249
389.002
382.757
357.318
339.536
356.674
340.964
353.99
353.795
343.153
369.102
367.193
385.362
387.452
364.35
360.256
381.601
375.93
351.644
335.629
351.084
336.664
348.89
348.596
338.771
364.255
362.494
379.911
381.818
360.043
356.443
376.435
371.232
348.074
333.011
347.621
333.985
345.661
345.515
336.221
537.054
554.331
525.333
546.249
509.384
536.047
482.077
513.588
481.748
506.673
506.204
530.647
521.08
542.238
531.567
550.448
500.015
478.566
521.229
490.3
470.87
448.653
491.949
458.896
545.356
553.052
559.028
563.24
533.924
543.624
551.9
558.101
534.471
518.089
510.593
499.71
530.267
545.481
541.695
541.361
501.166
505.574
516.998
516.008
469.343
472.921
549.019
551.328
522.213
528.73
558.64
561.586
558.137
566.981
566.506
570.517
550.509
563.923
562.653
568.963
535.837
557.55
548.464
563.773
557.671
567.393
561.235
568.667
463.156
450.515
471.262
453.43
430.63
419.477
438.935
422.525
499.889
483.129
492.132
479.929
476.998
454.849
478.5
454.68
444.597
424.11
446.063
424.033
505.347
484.668
506.878
484.641
525.316
554.701
512.432
545.492
517.938
550.27
508.467
541.812
530.468
557.223
514.378
547.422
532.107
558.147
514.605
548.282
550.506
535.378
562.721
551.664
539.492
524.474
558.214
545.73
523.673
509.936
550.658
537.443
446.824
409.226
479.758
507.038
541.384
403.213
440.505
473.037
498.518
530.101
409.046
443.276
474.47
502.614
534.595
508.39
484.79
513.637
491.083
502.051
480.183
511.616
489.017
492.863
472.516
508.98
486.8
392.355
378.761
430.353
415.528
461.149
444.554
485.311
466.819
508.524
487.959
397.009
382.254
432.372
419.917
463.635
450.091
490.462
474.586
513.478
495.698
437.19
430.876
436.15
430.642
402.215
382.562
402.577
382.447
467.372
465.137
468.426
464.373
433.915
430.005
433.899
430.31
401.97
382.798
402.104
383.154
464.854
464.543
464.869
464.974
496.522
494.174
520.288
517.125
496.213
491.592
519.159
513.324
495.421
494.435
520.587
518.418
494.148
493.761
519.514
517.526
459.729
440.731
430.962
462.938
442.479
432.35
456.86
437.597
427.433
461.194
440.095
429.456
449.669
430.354
420.081
459.012
436.409
424.941
364.093
353.516
348.285
398.2
383.114
374.98
424.878
406.209
395.796
444.085
423.428
412.413
458.831
433.708
420.681
366.145
353.153
346.638
404.425
387.788
378.574
431.182
410.401
398.47
450.539
425.614
411.71
462.758
434.155
418.819
401.495
392.344
407.333
398.237
434.317
418.306
445.425
426.306
376.507
353.627
377.669
355.503
377.922
356.439
379.771
358.428
379.392
375.477
378.771
373.274
359.962
363.478
402.461
405.242
432.053
434.909
382.676
387.029
382.633
385.219
366.491
369.563
331.535
313.743
336.711
316.865
334.181
314.35
339.22
317.857
338.476
315.213
345.316
319.806
349.075
322.715
350.785
324.409
374.485
364.878
382.124
368.453
400.612
389.938
408.468
393.386
361.094
347.352
353.888
343.929
386.436
370.426
388.208
370.977
413.241
395.228
414.845
395.455
365.096
349.338
366.935
350.059
341.079
317.368
330.338
312.272
334.652
313.696
327.305
310.147
344.939
320.097
332.153
313.629
346.957
321.92
332.922
314.345
315.472
305.155
307.571
301.035
317.823
307.849
307.981
301.829
322.245
313.656
309.03
303.957
355.113
378.337
338.002
325.315
309.116
373.127
350.382
331.581
319.694
305.783
378.067
355.018
336.764
322.613
307.537
297.17
290.266
295.009
288.929
300.02
292.835
296.283
290.222
305.595
297.931
298.774
292.622
362.434
349.976
340.467
329.163
324.184
314.816
312.816
304.423
301.754
295.436
366.153
351.193
344.31
330.837
328.058
316.827
315.523
305.703
303.607
296.58
348.73
331.035
352.018
333.314
371.418
351.249
374.207
352.515
334.334
319.234
331.338
316.94
354.712
334.768
355.399
335.383
376.106
353.24
376.569
353.739
336.975
320.829
337.67
321.385
318.969
306.697
305.292
296.543
317.332
304.994
304.512
295.872
320.376
307.934
305.809
296.837
321.811
308.631
306.683
297.656
283.442
280.157
278.872
279.628
277.051
276.178
286.035
282.303
280.818
280.838
278.105
277.091
290.862
286.553
284.757
282.793
279.498
278.23
337.693
329.375
325.434
318.908
312.443
309.577
306.112
300.626
298.384
296.072
290.77
288.465
284.303
280.304
278.717
336.856
326.511
321.877
318.652
310.151
306.444
306.306
299.182
296.197
295.608
289.667
287.36
283.601
279.752
278.253
299.529
290.335
284.644
280.852
300.853
290.813
284.765
280.82
299.626
290.41
284.722
280.92
301.337
291.055
284.947
280.965
299.619
290.472
284.932
281.145
301.703
291.281
285.24
281.217
302.931
291.868
285.33
281.154
303.92
292.445
285.57
281.256
300.879
291.119
285.284
281.33
299.241
290.739
285.311
281.635
299.269
290.456
285.116
281.421
298.295
290.28
285.132
281.645
302.179
291.722
285.454
281.335
300.008
291.149
285.496
281.733
303.173
292.254
285.703
281.496
300.624
291.516
285.723
281.92
297.376
289.604
284.516
281
294.872
288.779
284.354
281.228
297.404
289.64
284.585
281.077
295.091
288.874
284.408
281.283
297.547
289.735
284.731
281.241
295.695
289.118
284.539
281.389
297.429
289.78
284.872
281.463
296.187
289.342
284.702
281.544
297.251
289.832
284.987
281.694
292.894
288.182
284.068
281.623
291.764
287.887
283.965
281.738
293.329
288.341
284.149
281.682
292.243
288.06
284.042
281.784
294.121
288.639
284.275
281.759
293.06
288.365
284.164
281.857
295.094
289.029
284.492
281.895
294.006
288.744
284.341
281.964
296.038
289.478
284.758
282.044
294.827
289.146
284.544
282.091
297.333
290.278
285.14
282.254
296.029
289.956
285.018
282.392
296.743
289.899
284.946
282.141
295.459
289.565
284.778
282.236
297.825
290.62
285.298
282.354
296.551
290.335
285.236
282.543
298.31
290.947
285.503
282.505
297.068
290.695
285.463
282.708
277.988
276.211
275.051
274.367
274.052
277.985
276.213
275.054
274.368
274.053
278.025
276.228
275.059
274.371
274.055
278.033
276.236
275.065
274.374
274.057
278.073
276.248
275.069
274.377
274.058
278.086
276.262
275.077
274.381
274.061
278.148
276.295
275.095
274.391
274.068
278.236
276.343
275.12
274.404
274.077
278.133
276.279
275.085
274.385
274.064
278.195
276.297
275.092
274.388
274.066
278.113
276.263
275.076
274.38
274.061
278.166
276.281
275.084
274.384
274.063
278.188
276.309
275.101
274.393
274.069
278.247
276.324
275.107
274.396
274.071
278.273
276.353
275.124
274.406
274.078
278.321
276.363
275.127
274.407
274.078
278
276.209
275.049
274.366
274.051
278.015
276.209
275.048
274.365
274.051
278.029
276.222
275.055
274.369
274.053
278.037
276.218
275.053
274.367
274.052
278.074
276.241
275.064
274.374
274.056
278.075
276.235
275.061
274.372
274.055
278.123
276.26
275.073
274.378
274.059
278.117
276.254
275.07
274.376
274.058
278.149
276.27
275.078
274.381
274.061
521.742
518.196
521.556
518.055
521.735
518.427
523.018
519.824
526.418
523.246
532.626
532.961
530.737
529.954
533.437
534.206
533.701
534.346
562.639
570.774
572.495
572.887
572.971
553.781
568.34
571.94
572.766
572.943
562.713
570.801
572.503
572.888
572.972
553.953
568.402
571.954
572.771
572.944
562.877
570.851
572.515
572.891
572.972
554.227
568.486
571.975
572.776
572.945
563.323
570.961
572.541
572.897
572.974
554.834
568.642
572.012
572.784
572.947
564.196
571.146
572.581
572.906
572.976
555.974
568.899
572.066
572.795
572.949
565.052
571.272
572.602
572.909