/*--------------------------------*- C++ -*----------------------------------*\
  =========                 |
  \\      /  F ield         | OpenFOAM: The Open Source CFD Toolbox
   \\    /   O peration     | Website:  https://openfoam.org
    \\  /    A nd           | Version:  11
     \\/     M anipulation  |
\*---------------------------------------------------------------------------*/
FoamFile
{
    format      ascii;
    class       volScalarField;
    location    "200";
    object      epsilon;
}
// * * * * * * * * * * * * * * * * * * * * * * * * * * * * * * * * * * * * * //

dimensions      [0 2 -3 0 0 0 0];

internalField   nonuniform List<scalar> 
12225
(
285.522
270.706
257.916
243.811
232.461
223.087
216.81
212.699
212.742
213.959
217.241
220.908
228.13
232.769
241.374
246.578
256.281
260.088
52.4924
91.8831
106.974
114.749
124.844
136.784
152.693
169.903
191.122
210.933
235.254
255.49
281.108
299.359
324.824
339.56
363.705
379.429
20.5285
34.8724
44.6758
50.4687
55.3966
59.6066
64.6661
69.6411
76.3222
83.1824
91.4468
99.3195
108.193
116.946
125.58
135.332
142.575
154.093
16.0023
19.4862
24.0818
27.5633
30.4973
32.8688
35.1564
37.2925
39.5043
41.9172
44.3393
47.2033
49.6857
53.0449
55.4187
59.2609
61.3992
65.7142
15.0385
15.7123
17.3993
19.0782
20.6396
22.0256
23.2466
24.4308
25.4447
26.5946
27.5242
28.7587
29.6334
30.9876
31.8147
33.2767
34.0519
35.6747
14.7897
14.8256
15.2495
15.8675
16.5678
17.2869
17.9239
18.5841
19.1193
19.7341
20.1935
20.7993
21.2089
21.8235
22.1986
22.8309
23.1639
23.8718
14.7658
14.6146
14.6409
14.7257
14.9352
15.2199
15.4916
15.8089
16.071
16.3826
16.6182
16.9204
17.1311
17.4275
17.616
17.915
18.0723
18.4133
14.7687
14.5866
14.466
14.3801
14.3677
14.3896
14.4394
14.5334
14.6185
14.7367
14.8309
14.9565
15.0478
15.1764
15.2609
15.3936
15.4631
15.6242
14.768
14.591
14.4349
14.2963
14.185
14.1044
14.0399
14.0066
13.9814
13.9785
13.9809
13.9917
14.0037
14.03
14.0463
14.0813
14.097
14.1518
14.7666
14.594
14.432
14.282
14.143
14.0219
13.9115
13.8193
13.737
13.6698
13.6102
13.5633
13.5181
13.4872
13.4516
13.4344
13.4019
13.4012
14.7659
14.5945
14.4322
14.2803
14.1361
14.0032
13.8782
13.7644
13.6582
13.5629
13.4735
13.3952
13.3198
13.2561
13.1915
13.1408
13.0838
13.0452
14.7657
14.5943
14.4321
14.2798
14.1353
13.9999
13.8715
13.7518
13.6385
13.5336
13.4341
13.343
13.2557
13.1771
13.1002
13.0328
12.9647
12.9074
14.7657
14.5941
14.432
14.2794
14.1349
13.9989
13.8699
13.7485
13.6331
13.5249
13.4219
13.3257
13.2338
13.1483
13.0663
12.9906
12.9172
12.8502
14.7657
14.5939
14.4318
14.279
14.1346
13.9983
13.8691
13.7472
13.6315
13.5223
13.4184
13.3203
13.227
13.1389
13.055
12.9759
12.9002
12.8291
14.7657
14.5938
14.4317
14.2787
14.1342
13.9977
13.8686
13.7464
13.6307
13.5211
13.4171
13.3185
13.2248
13.136
13.0516
12.9715
12.8952
12.8228
14.7657
14.5937
14.4316
14.2785
14.1339
13.9973
13.8681
13.7458
13.63
13.5202
13.4161
13.3174
13.2236
13.1346
13.05
12.9697
12.8932
12.8205
14.7657
14.5937
14.4315
14.2783
14.1337
13.997
13.8677
13.7453
13.6294
13.5195
13.4154
13.3165
13.2227
13.1336
13.0489
12.9684
12.8919
12.819
14.7657
14.5937
14.4314
14.2782
14.1335
13.9968
13.8674
13.745
13.629
13.5191
13.4148
13.3159
13.222
13.1329
13.0481
12.9676
12.8909
12.818
14.7657
14.5937
14.4314
14.2782
14.1335
13.9967
13.8673
13.7448
13.6288
13.5189
13.4146
13.3157
13.2217
13.1325
13.0477
12.9671
12.8904
12.8175
14.7657
14.5937
14.4314
14.2782
14.1336
13.9968
13.8674
13.745
13.629
13.5191
13.4148
13.3159
13.222
13.1327
13.048
12.9674
12.8907
12.8177
14.7657
14.5937
14.4315
14.2784
14.1338
13.997
13.8677
13.7453
13.6294
13.5196
13.4155
13.3166
13.2229
13.1338
13.0494
12.969
12.8927
12.82
14.7657
14.5937
14.4316
14.2785
14.1341
13.9974
13.8685
13.7464
13.6312
13.522
13.419
13.3214
13.2293
13.1418
13.0595
12.981
12.9074
12.8368
14.7659
14.5937
14.4318
14.2788
14.1353
14.0002
13.8742
13.756
13.6463
13.5435
13.4485
13.3592
13.277
13.1992
13.1282
13.0601
12.9988
12.9387
14.7661
14.5928
14.4329
14.2844
14.1515
14.0321
13.9289
13.8375
13.7593
13.6894
13.6307
13.5769
13.5328
13.4905
13.4574
13.423
13.3989
13.3693
14.7641
14.5936
14.461
14.3603
14.3029
14.2767
14.2796
14.294
14.3202
14.3529
14.3959
14.4345
14.4824
14.5217
14.572
14.6089
14.6616
14.6938
14.757
14.6921
14.7579
14.9172
15.1828
15.4611
15.7475
16.012
16.2723
16.5038
16.736
16.9386
17.1507
17.3309
17.5309
17.6936
17.8888
18.0359
14.9575
15.4344
16.5693
17.6884
18.7053
19.5677
20.3372
20.9968
21.6194
22.166
22.7188
23.2108
23.7398
24.2042
24.7326
25.1825
25.7249
26.1658
16.2579
20.9389
25.015
27.7587
29.7844
31.3585
32.7766
34.0583
35.3592
36.6161
37.9752
39.297
40.7613
42.1455
43.7175
45.1733
46.8833
48.3579
29.9428
47.225
54.8705
58.6734
61.6138
64.4319
67.5794
70.9787
74.7377
78.7136
82.9847
87.3437
91.9044
96.4494
101.099
105.621
110.174
114.575
165.79
160.073
154.899
149.564
144.479
139.678
135.613
132.11
129.27
126.973
125.319
124.044
123.339
122.829
122.825
122.982
123.269
123.826
0.465729
0.49286
0.875134
1.23809
1.62275
2.03202
2.46878
2.92997
3.40806
3.89335
4.3768
4.85069
5.30936
5.74844
6.16462
6.55491
6.91597
7.24379
7.53268
7.77572
7.96417
8.08925
8.14151
8.12017
8.00161
7.85695
7.73614
8.00241
8.29402
8.55542
8.77833
9.01068
9.16193
9.10256
8.66177
9.2387
40.9065
44.5895
47.4008
50.9939
54.4745
58.258
62.1477
66.2384
70.4853
74.9174
79.5213
84.3135
89.2863
94.455
99.8121
105.373
111.13
117.098
123.269
129.659
136.257
143.081
150.117
157.384
164.867
172.583
180.517
188.686
197.072
205.692
214.527
223.592
232.866
242.365
252.065
261.982
272.09
282.402
292.892
303.571
314.41
325.421
336.573
347.874
359.293
370.834
382.465
394.187
405.962
417.788
429.624
441.46
453.256
464.991
476.628
488.139
499.513
510.776
522.023
533.077
543.987
554.708
565.232
575.532
585.586
595.371
604.863
614.04
622.879
631.358
639.455
647.146
654.413
661.233
667.589
673.46
678.833
683.687
688.016
691.8
695.041
697.726
699.865
701.473
702.564
702.635
702.463
701.524
700.21
698.462
696.048
693.096
689.634
685.663
681.222
676.318
670.989
665.252
659.144
652.687
645.909
638.851
631.557
624.077
616.456
608.739
600.96
593.153
585.349
577.584
569.886
562.292
554.823
547.513
540.385
533.475
526.802
520.391
514.256
508.422
502.894
497.689
492.813
488.271
484.062
480.195
476.651
473.414
470.519
468.492
469.639
471.195
473.036
475.228
477.749
480.504
483.457
486.507
489.525
492.081
494.375
495.648
494.476
472.032
1.97876
1.1744
1.17317
1.32572
1.55751
1.84582
2.18065
2.55226
2.95046
3.36556
3.78946
4.21616
4.64166
5.06363
5.48084
5.89264
6.29832
6.6967
7.08541
7.46066
7.81667
8.15919
8.51584
8.90131
9.34313
9.88452
10.5253
11.2399
11.9766
12.8203
13.834
15.0543
16.5184
18.4147
20.3232
23.8297
27.4001
28.8627
30.5506
32.331
34.1527
36.0515
38.0101
40.0393
42.1361
44.3046
46.5449
48.8595
51.249
53.7155
56.2593
58.8827
61.5855
64.3698
67.2355
70.1842
73.2153
76.3305
79.5288
82.8116
86.1775
89.6277
93.1605
96.7765
100.474
104.252
108.11
112.046
116.058
120.146
124.305
128.536
132.833
137.195
141.618
146.1
150.635
155.222
159.853
164.526
169.233
173.972
178.734
183.513
188.301
193.091
197.874
202.642
207.386
212.099
216.776
221.417
226.033
230.651
235.331
239.971
244.548
249.055
253.485
257.828
262.076
266.221
270.252
274.162
277.942
281.583
285.076
288.413
291.586
294.585
297.404
300.035
302.472
304.706
306.734
308.549
310.148
311.526
312.682
313.611
314.297
314.7
314.902
314.853
314.622
314.187
313.498
312.577
311.44
310.093
308.545
306.803
304.879
302.78
300.521
298.11
295.562
292.889
290.111
287.244
284.307
281.316
278.285
275.229
272.161
269.096
266.047
263.028
260.052
257.131
254.277
251.505
248.824
246.244
243.776
241.428
239.207
237.12
235.173
233.369
231.713
230.207
228.854
227.654
226.631
225.934
225.988
226.216
226.584
227.112
227.775
228.524
229.347
230.226
231.095
231.841
232.503
233.166
233.5
232.868
3.91676
1.97732
1.75218
1.80201
1.96385
2.19937
2.49147
2.8285
3.20011
3.59698
4.01137
4.43771
4.87264
5.31478
5.76431
6.22252
6.69142
7.17351
7.6718
8.1905
8.73668
9.31414
9.91824
10.56
11.2515
11.9976
12.7922
13.6294
14.509
15.4674
16.5304
17.7131
19.0265
20.4778
22.0535
23.765
25.348
26.7259
28.1551
29.6419
31.1808
32.7743
34.4214
36.124
37.8824
39.6979
41.5711
43.503
45.4943
47.5459
49.6584
51.8325
54.0687
56.3676
58.7296
61.1551
63.6444
66.1976
68.8149
71.4961
74.2412
77.05
79.9219
82.8566
85.8533
88.9113
92.0296
95.2071
98.4426
101.735
105.082
108.482
111.933
115.433
118.98
122.572
126.204
129.875
133.581
137.318
141.083
144.873
148.682
152.507
156.342
160.184
164.027
167.867
171.701
175.526
179.339
183.143
186.94
190.734
194.521
198.271
201.975
205.627
209.219
212.745
216.198
219.571
222.857
226.048
229.138
232.12
234.986
237.73
240.344
242.822
245.158
247.345
249.377
251.248
252.955
254.492
255.855
257.04
258.044
258.862
259.488
259.92
260.143
260.195
260.092
259.802
259.323
258.661
257.824
256.818
255.649
254.323
252.849
251.234
249.487
247.618
245.636
243.554
241.383
239.137
236.83
234.474
232.08
229.66
227.226
224.789
222.36
219.95
217.569
215.227
212.934
210.699
208.532
206.441
204.433
202.515
200.693
198.973
197.36
195.857
194.467
193.194
192.039
191.005
190.102
189.386
188.979
188.717
188.566
188.521
188.557
188.626
188.739
188.903
189.038
189.081
189.109
189.333
189.656
190.593
5.94443
2.83409
2.38524
2.35125
2.46965
2.67601
2.94556
3.26491
3.62421
4.01525
4.4313
4.86736
5.32036
5.78908
6.2739
6.77643
7.29913
7.84497
8.41701
9.01816
9.65071
10.3155
11.0124
11.7427
12.5074
13.3052
14.1359
15.001
15.9077
16.8703
17.8986
18.9966
20.1635
21.3935
22.7119
24.0678
25.4202
26.7679
28.1508
29.5785
31.0548
32.5811
34.1582
35.787
37.4685
39.2034
40.9925
42.8368
44.737
46.6937
48.7077
50.7795
52.9096
55.0986
57.347
59.6552
62.0235
64.4523
66.9417
69.4918
72.1027
74.7742
77.5061
80.2981
83.1497
86.0604
89.0295
92.056
95.139
98.2773
101.47
104.714
108.01
111.354
114.745
118.181
121.659
125.176
128.73
132.317
135.935
139.58
143.249
146.937
150.642
154.358
158.083
161.814
165.546
169.277
173.005
176.727
180.443
184.147
187.83
191.479
195.085
198.643
202.146
205.587
208.96
212.256
215.471
218.596
221.624
224.549
227.364
230.061
232.634
235.076
237.381
239.543
241.556
243.414
245.112
246.645
248.009
249.2
250.215
251.05
251.701
252.17
252.433
252.522
252.457
252.207
251.777
251.172
250.396
249.455
248.356
247.103
245.704
244.167
242.5
240.712
238.814
236.815
234.727
232.562
230.333
228.051
225.727
223.373
221
218.618
216.238
213.871
211.525
209.211
206.937
204.712
202.545
200.443
198.413
196.462
194.594
192.817
191.133
189.546
188.059
186.673
185.388
184.207
183.132
182.19
181.42
180.77
180.211
179.732
179.307
178.906
178.526
178.166
177.785
177.38
176.998
176.806
176.883
177.613
7.89958
3.68422
3.01486
2.90303
2.98002
3.1612
3.41291
3.71885
4.06868
4.45466
4.87065
5.31202
5.77564
6.25995
6.76474
7.29091
7.84016
8.41458
9.01633
9.64725
10.3085
11.0007
11.7234
12.4764
13.2596
14.0739
14.9201
15.8005
16.7198
17.6841
18.6982
19.7639
20.8813
22.0504
23.2709
24.5381
25.8378
27.1717
28.5487
29.9735
31.447
32.9703
34.5445
36.1705
37.8494
39.582
41.3694
43.2126
45.1124
47.0703
49.0866
51.1621
53.2972
55.4928
57.7496
60.0682
62.4491
64.8929
67.4001
69.9709
72.6056
75.3044
78.0673
80.8942
83.7849
86.7392
89.7564
92.836
95.9771
99.1788
102.44
105.759
109.135
112.566
116.049
119.583
123.166
126.795
130.467
134.178
137.927
141.71
145.523
149.362
153.225
157.106
161.003
164.911
168.826
172.745
176.664
180.577
184.478
188.362
192.219
196.043
199.825
203.558
207.236
210.851
214.397
217.865
221.249
224.541
227.733
230.819
233.791
236.642
239.364
241.95
244.394
246.689
248.829
250.807
252.619
254.258
255.721
257.003
258.1
259.009
259.728
260.256
260.575
260.699
260.659
260.426
260.005
259.4
258.617
257.661
256.536
255.249
253.807
252.217
250.489
248.632
246.655
244.57
242.388
240.12
237.778
235.376
232.923
230.432
227.913
225.379
222.84
220.306
217.787
215.292
212.831
210.412
208.043
205.732
203.487
201.312
199.214
197.197
195.266
193.424
191.672
190.011
188.443
186.966
185.583
184.303
183.141
182.077
181.092
180.173
179.309
178.472
177.655
176.852
176.049
175.255
174.512
173.955
173.657
173.931
9.72336
4.49341
3.61305
3.42634
3.46305
3.61975
3.85404
4.14625
4.48502
4.86254
5.27298
5.71187
6.17605
6.6636
7.1737
7.7065
8.26288
8.84416
9.45185
10.0874
10.752
11.4464
12.1713
12.9271
13.7145
14.5348
15.3894
16.2806
17.2112
18.1843
19.2021
20.2663
21.3776
22.5368
23.7441
24.9982
26.2967
27.6401
29.0306
30.4703
31.9605
33.5024
35.0973
36.7463
38.4506
40.2113
42.0297
43.9068
45.8436
47.8412
49.9007
52.0234
54.2105
56.4631
58.7822
61.1687
63.6236
66.1477
68.7418
71.4065
74.1425
76.9501
79.8298
82.7817
85.8059
88.9023
92.0706
95.3105
98.6212
102.002
105.452
108.969
112.553
116.201
119.912
123.683
127.512
131.396
135.333
139.319
143.35
147.423
151.535
155.681
159.857
164.058
168.281
172.52
176.77
181.026
185.283
189.534
193.771
197.988
202.177
206.33
210.44
214.5
218.5
222.434
226.294
230.072
233.759
237.347
240.829
244.197
247.441
250.555
253.53
256.359
259.034
261.549
263.895
266.067
268.059
269.864
271.478
272.896
274.114
275.128
275.937
276.539
276.92
277.079
277.059
276.829
276.395
275.762
274.934
273.916
272.715
271.335
269.786
268.073
266.207
264.198
262.055
259.789
257.414
254.94
252.381
249.747
247.053
244.31
241.529
238.724
235.904
233.081
230.266
227.467
224.696
221.959
219.266
216.625
214.042
211.523
209.075
206.702
204.408
202.196
200.068
198.026
196.07
194.199
192.413
190.717
189.114
187.597
186.154
184.773
183.443
182.149
180.883
179.64
178.417
177.23
176.118
175.193
174.497
174.222
11.3706
5.23692
4.15937
3.90027
3.89764
4.02917
4.24499
4.52183
4.84698
5.21232
5.61208
6.04198
6.4989
6.98079
7.48654
8.01588
8.56921
9.14744
9.75175
10.3835
11.044
11.7345
12.4562
13.2103
13.9981
14.8209
15.6805
16.5787
17.5173
18.4983
19.5234
20.5939
21.7108
22.8753
24.0879
25.3491
26.6591
28.0187
29.429
30.8917
32.408
33.9793
35.6071
37.2928
39.0378
40.8436
42.7117
44.6435
46.6405
48.7041
50.8359
53.0375
55.3103
57.6558
60.0755
62.5707
65.1427
67.7928
70.5221
73.3317
76.2225
79.1953
82.2508
85.3895
88.6117
91.9177
95.3073
98.7803
102.336
105.974
109.694
113.493
117.371
121.325
125.354
129.455
133.626
137.863
142.163
146.523
150.939
155.406
159.92
164.477
169.072
173.699
178.352
183.027
187.717
192.415
197.114
201.807
206.487
211.144
215.77
220.359
224.9
229.385
233.807
238.156
242.423
246.599
250.676
254.644
258.495
262.219
265.809
269.254
272.546
275.677
278.639
281.424
284.024
286.431
288.64
290.644
292.437
294.015
295.372
296.505
297.411
298.09
298.529
298.722
298.71
298.468
298.002
297.315
296.412
295.3
293.983
292.468
290.763
288.877
286.818
284.597
282.225
279.714
277.076
274.325
271.472
268.531
265.515
262.438
259.312
256.15
252.963
249.764
246.563
243.37
240.196
237.05
233.941
230.876
227.862
224.906
222.015
219.193
216.445
213.773
211.182
208.671
206.243
203.898
201.634
199.453
197.357
195.341
193.4
191.523
189.705
187.934
186.205
184.515
182.868
181.282
179.792
178.489
177.387
176.567
12.8096
5.89698
4.63988
4.30849
4.2696
4.37564
4.5719
4.83181
5.14126
5.49168
5.8773
6.29399
6.73879
7.20973
7.70565
8.22614
8.77141
9.34218
9.93951
10.5647
11.2191
11.9041
12.6212
13.372
14.158
14.9807
15.8418
16.7429
17.6857
18.6718
19.7025
20.7794
21.9037
23.0765
24.2991
25.5725
26.8978
28.2765
29.7098
31.1993
32.7466
34.3534
36.0213
37.7522
39.5477
41.4098
43.3403
45.3411
47.4141
49.5613
51.7846
54.086
56.4675
58.931
61.4784
64.1115
66.8322
69.6421
72.5429
75.536
78.6228
81.8044
85.082
88.4564
91.9282
95.4978
99.1654
102.931
106.794
110.754
114.81
118.96
123.204
127.538
131.961
136.47
141.062
145.733
150.48
155.298
160.183
165.13
170.134
175.189
180.29
185.429
190.601
195.798
201.012
206.237
211.464
216.685
221.889
227.069
232.214
237.316
242.365
247.351
252.265
257.097
261.837
266.475
271.002
275.406
279.678
283.809
287.788
291.607
295.254
298.723
302.002
305.084
307.961
310.625
313.068
315.283
317.265
319.007
320.505
321.755
322.754
323.501
323.985
324.2
324.178
323.904
323.381
322.613
321.605
320.364
318.895
317.206
315.304
313.199
310.9
308.419
305.766
302.955
299.999
296.911
293.704
290.394
286.994
283.518
279.979
276.391
272.768
269.121
265.462
261.802
258.151
254.52
250.917
247.351
243.83
240.361
236.949
233.601
230.322
227.116
223.986
220.934
217.964
215.074
212.267
209.542
206.901
204.342
201.862
199.457
197.121
194.849
192.639
190.489
188.406
186.41
184.531
182.841
181.329
180.016
14.0212
6.46168
5.04554
4.64659
4.57258
4.65314
4.82917
5.07115
5.36369
5.69769
6.06734
6.46863
6.89881
7.35606
7.83928
8.34807
8.88261
9.44358
10.032
10.6491
11.2964
11.9747
12.6858
13.4316
14.2135
15.0335
15.8931
16.794
17.7377
18.7261
19.7605
20.8425
21.9735
23.1552
24.3887
25.6754
27.0176
28.4171
29.8755
31.3949
32.9771
34.6242
36.3384
38.1216
39.9763
41.9046
43.9089
45.9916
48.1551
50.4019
52.7345
55.1554
57.6672
60.2722
62.9729
65.7718
68.6711
71.6731
74.7799
77.9934
81.3155
84.7478
88.2916
91.9483
95.7187
99.6035
103.603
107.717
111.946
116.289
120.744
125.311
129.987
134.77
139.657
144.646
149.733
154.912
160.181
165.534
170.966
176.47
182.04
187.671
193.354
199.082
204.847
210.64
216.454
222.278
228.104
233.921
239.718
245.485
251.213
256.889
262.504
268.046
273.505
278.869
284.128
289.269
294.283
299.158
303.883
308.448
312.841
317.053
321.073
324.891
328.498
331.885
335.042
337.961
340.634
343.055
345.216
347.112
348.737
350.087
351.16
351.953
352.457
352.67
352.612
352.276
351.664
350.781
349.633
348.226
346.567
344.663
342.523
340.156
337.573
334.785
331.804
328.645
325.321
321.845
318.234
314.501
310.662
306.731
302.723
298.652
294.533
290.378
286.2
282.01
277.821
273.641
269.482
265.351
261.257
257.209
253.212
249.274
245.4
241.595
237.864
234.21
230.637
227.145
223.739
220.418
217.186
214.043
210.988
208.021
205.141
202.344
199.632
197.006
194.475
192.057
189.777
187.693
185.772
184.007
14.9971
6.92567
5.37372
4.91366
4.8062
4.86182
5.01751
5.24124
5.51642
5.83352
6.18658
6.57171
6.98633
7.42881
7.89823
8.39369
8.9157
9.46511
10.043
10.6508
11.2904
11.9618
12.6668
13.4069
14.1841
15.0001
15.8565
16.7553
17.698
18.6866
19.7228
20.8084
21.9451
23.1349
24.3795
25.681
27.0429
28.4658
29.9525
31.5058
33.1282
34.8221
36.5901
38.4348
40.359
42.3655
44.4572
46.637
48.9081
51.2733
53.736
56.2991
58.9659
61.7394
64.6226
67.6187
70.7304
73.9607
77.312
80.787
84.3878
88.1166
91.9751
95.9648
100.087
104.342
108.731
113.254
117.911
122.699
127.62
132.67
137.847
143.149
148.572
154.112
159.766
165.528
171.392
177.353
183.404
189.538
195.747
202.024
208.359
214.744
221.17
227.626
234.101
240.586
247.069
253.538
259.982
266.388
272.745
279.04
285.261
291.396
297.433
303.358
309.16
314.827
320.346
325.705
330.892
335.896
340.705
345.309
349.695
353.854
357.776
361.451
364.87
368.024
370.904
373.504
375.816
377.835
379.555
380.972
382.082
382.885
383.371
383.544
383.413
382.973
382.23
381.191
379.861
378.246
376.353
374.191
371.768
369.095
366.183
363.043
359.69
356.137
352.399
348.49
344.427
340.224
335.898
331.464
326.937
322.334
317.669
312.955
308.207
303.436
298.655
293.874
289.105
284.356
279.637
274.956
270.321
265.739
261.218
256.762
252.378
248.071
243.845
239.705
235.654
231.695
227.832
224.069
220.407
216.851
213.4
210.058
206.826
203.709
200.717
197.865
195.175
192.692
190.368
188.182
15.7391
7.28878
5.62603
5.11264
4.97419
5.00607
5.14191
5.34763
5.60566
5.90604
6.24272
6.61178
7.01068
7.43831
7.89456
8.37848
8.88994
9.42944
9.99784
10.5962
11.2254
11.8868
12.5824
13.3143
14.0841
14.8939
15.7456
16.6411
17.5825
18.5718
19.6112
20.7028
21.8487
23.0514
24.3128
25.6346
27.0194
28.4699
29.9907
31.5854
33.2567
35.0078
36.8418
38.7619
40.7713
42.8735
45.0721
47.3706
49.7727
52.2824
54.9032
57.6391
60.4939
63.4713
66.5751
69.8089
73.1762
76.6805
80.3248
84.1122
88.0453
92.1266
96.3582
100.742
105.279
109.97
114.815
119.815
124.97
130.277
135.735
141.342
147.095
152.991
159.025
165.193
171.488
177.906
184.44
191.081
197.823
204.656
211.572
218.56
225.611
232.714
239.857
247.03
254.218
261.412
268.596
275.759
282.886
289.964
296.979
303.917
310.765
317.508
324.134
330.627
336.975
343.164
349.181
355.013
360.647
366.071
371.273
376.24
380.962
385.428
389.628
393.551
397.189
400.532
403.573
406.303
408.717
410.807
412.57
414.001
415.096
415.854
416.271
416.348
416.092
415.495
414.569
413.322
411.758
409.884
407.708
405.24
402.487
399.462
396.174
392.638
388.867
384.876
380.68
376.295
371.737
367.021
362.166
357.187
352.1
346.922
341.668
336.354
330.993
325.599
320.184
314.76
309.338
303.929
298.542
293.187
287.872
282.605
277.394
272.247
267.17
262.171
257.255
252.428
247.697
243.066
238.541
234.13
229.836
225.667
221.626
217.72
213.953
210.333
206.869
203.575
200.469
197.585
194.865
192.286
16.2592
7.55533
5.80728
5.24928
5.08304
5.09302
5.21002
5.39849
5.64006
5.92436
6.2458
6.60152
6.98774
7.40276
7.84529
8.31451
8.81162
9.33745
9.89292
10.4792
11.0976
11.75
12.4379
13.1632
13.9278
14.7337
15.5832
16.4786
17.422
18.4162
19.4634
20.5662
21.7272
22.9494
24.236
25.5888
27.0103
28.5027
30.0713
31.7215
33.4574
35.2836
37.2042
39.2225
41.3425
43.5683
45.9041
48.3544
50.9236
53.6163
56.437
59.3904
62.4808
65.7129
69.0909
72.6193
76.3019
80.1429
84.1457
88.3138
92.6501
97.1573
101.838
106.693
111.724
116.931
122.316
127.877
133.613
139.523
145.604
151.853
158.266
164.839
171.566
178.441
185.457
192.608
199.884
207.276
214.776
222.373
230.055
237.812
245.631
253.5
261.405
269.333
277.269
285.2
293.111
300.986
308.81
316.569
324.246
331.825
339.293
346.632
353.829
360.868
367.734
374.414
380.892
387.155
393.19
398.984
404.524
409.798
414.795
419.504
423.916
428.019
431.805
435.266
438.393
441.18
443.621
445.708
447.439
448.81
449.817
450.459
450.735
450.649
450.196
449.375
448.204
446.687
444.83
442.639
440.125
437.295
434.161
430.732
427.022
423.042
418.809
414.337
409.641
404.739
399.647
394.381
388.959
383.398
377.716
371.928
366.052
360.103
354.097
348.046
341.965
335.866
329.761
323.66
317.574
311.513
305.487
299.505
293.576
287.709
281.911
276.192
270.558
265.019
259.583
254.256
249.048
243.968
239.024
234.226
229.582
225.099
220.788
216.655
212.713
208.972
205.447
202.166
199.061
196.116
16.5796
7.73576
5.92538
5.33154
5.1408
5.13188
5.23114
5.40375
5.63171
5.90325
6.21157
6.55178
6.92207
7.32157
7.74979
8.20696
8.69315
9.209
9.75545
10.3337
10.9454
11.5921
12.2758
12.9985
13.7625
14.5701
15.4236
16.3258
17.2795
18.2878
19.3541
20.4805
21.67
22.9257
24.2504
25.6454
27.1173
28.6719
30.3144
32.0494
33.8818
35.8166
37.8597
40.0152
42.2879
44.6829
47.2053
49.8604
52.6535
55.59
58.6753
61.9145
65.3129
68.8757
72.6077
76.5138
80.5985
84.866
89.3202
93.9644
98.8017
103.835
109.065
114.494
120.123
125.952
131.98
138.206
144.627
151.241
158.045
165.033
172.2
179.541
187.049
194.715
202.531
210.488
218.576
226.784
235.1
243.512
252.008
260.572
269.193
277.854
286.541
295.237
303.928
312.597
321.227
329.802
338.304
346.717
355.023
363.206
371.248
379.134
386.846
394.369
401.688
408.786
415.65
422.265
428.616
434.692
440.479
445.967
451.143
455.997
460.519
464.701
468.534
472.01
475.121
477.863
480.228
482.213
483.814
485.027
485.852
486.288
486.334
486.002
485.261
484.14
482.648
480.788
478.569
475.997
473.08
469.831
466.258
462.374
458.19
453.721
448.981
443.985
438.751
433.295
427.633
421.784
415.765
409.593
403.287
396.863
390.339
383.731
377.055
370.325
363.556
356.76
349.95
343.137
336.333
329.548
322.793
316.078
309.413
302.807
296.272
289.816
283.451
277.185
271.029
264.994
259.092
253.333
247.729
242.294
237.039
231.976
227.115
222.469
218.046
213.861
209.92
206.248
202.772
199.489
16.6931
7.82987
5.98495
5.36609
5.15515
5.1311
5.21743
5.37734
5.59056
5.84677
6.1404
6.46807
6.82742
7.21707
7.63648
8.08569
8.56513
9.07559
9.61814
10.1941
10.8053
11.4536
12.1412
12.8708
13.6453
14.4668
15.3379
16.2619
17.2419
18.281
19.381
20.5454
21.7798
23.089
24.4782
25.9523
27.5165
29.1768
30.9387
32.808
34.7906
36.8929
39.1208
41.4801
43.9768
46.6173
49.4079
52.3549
55.4644
58.7427
62.1955
65.8287
69.6479
73.6588
77.8665
82.276
86.8916
91.7176
96.7574
102.014
107.49
113.187
119.106
125.247
131.611
138.194
144.997
152.015
159.246
166.683
174.323
182.158
190.181
198.385
206.759
215.295
223.982
232.808
241.761
250.828
259.995
269.249
278.573
287.953
297.373
306.815
316.263
325.7
335.107
344.467
353.763
362.974
372.084
381.074
389.925
398.62
407.14
415.469
423.588
431.483
439.136
446.531
453.655
460.492
467.028
473.252
479.151
484.714
489.93
494.79
499.285
503.406
507.148
510.502
513.463
516.027
518.188
519.944
521.292
522.228
522.754
522.872
522.594
521.888
520.772
519.262
517.362
515.079
512.421
509.394
506.009
502.277
498.208
493.813
489.106
484.101
478.812
473.255
467.447
461.405
455.145
448.686
442.045
435.241
428.291
421.213
414.024
406.743
399.384
391.963
384.494
376.991
369.467
361.934
354.403
346.886
339.395
331.94
324.533
317.185
309.908
302.712
295.61
288.615
281.738
274.993
268.395
261.957
255.696
249.626
243.763
238.122
232.718
227.563
222.668
218.046
213.7
209.652
205.825
202.236
16.6638
7.8467
5.99308
5.36196
5.13908
5.10323
5.17515
5.32132
5.52324
5.77025
6.05608
6.37705
6.73096
7.11665
7.53375
7.98247
8.46359
8.97853
9.52824
10.1141
10.7383
11.403
12.1109
12.8642
13.6648
14.5153
15.421
16.3859
17.4146
18.5115
19.6819
20.9304
22.2622
23.6831
25.1993
26.8173
28.5435
30.3846
32.3476
34.4392
36.6668
39.0377
41.5587
44.2372
47.0809
50.0976
53.2951
56.681
60.2617
64.0435
68.0324
72.2342
76.6544
81.2981
86.17
91.2743
96.6147
102.194
108.014
114.077
120.384
126.934
133.726
140.759
148.029
155.534
163.269
171.229
179.407
187.796
196.388
205.175
214.146
223.291
232.6
242.058
251.654
261.375
271.204
281.129
291.133
301.199
311.312
321.453
331.606
341.752
351.873
361.95
371.965
381.897
391.729
401.441
411.014
420.429
429.667
438.709
447.538
456.135
464.484
472.567
480.369
487.875
495.07
501.939
508.47
514.652
520.472
525.922
530.991
535.672
539.956
543.838
547.311
550.372
553.015
555.237
557.037
558.41
559.358
559.876
559.966
559.655
558.895
557.712
556.116
554.116
551.715
548.921
545.743
542.187
538.265
533.987
529.364
524.409
519.132
513.549
507.674
501.523
495.113
488.461
481.582
474.496
467.219
459.77
452.167
444.428
436.57
428.611
420.567
412.453
404.286
396.077
387.842
379.591
371.338
363.094
354.872
346.684
338.542
330.459
322.446
314.519
306.69
298.974
291.386
283.941
276.658
269.554
262.647
255.955
249.498
243.294
237.361
231.715
226.365
221.324
216.594
212.194
208.036
204.175
16.5355
7.82226
5.97155
5.33111
5.09543
5.04907
5.11393
5.25479
5.45286
5.69787
5.98412
6.30806
6.6674
7.06126
7.48954
7.95267
8.45137
8.98632
9.55796
10.1698
10.8251
11.5269
12.2789
13.0849
13.9498
14.8775
15.873
16.9418
18.0895
19.3225
20.6475
22.0709
23.5998
25.2417
27.0043
28.896
30.925
33.0997
35.4285
37.9198
40.5816
43.4215
46.4472
49.6686
53.0946
56.7349
60.6001
64.6994
69.0369
73.6171
78.4443
83.5228
88.8561
94.4473
100.299
106.412
112.788
119.427
126.327
133.488
140.905
148.576
156.496
164.659
173.061
181.692
190.546
199.614
208.886
218.352
228.002
237.823
247.804
257.931
268.19
278.568
289.05
299.62
310.263
320.961
331.699
342.459
353.223
363.974
374.692
385.361
395.959
406.47
416.873
427.15
437.28
447.247
457.03
466.61
475.97
485.09
493.954
502.543
510.843
518.837
526.51
533.848
540.836
547.463
553.716
559.586
565.063
570.138
574.804
579.054
582.884
586.287
589.261
591.803
593.911
595.582
596.82
597.614
597.982
597.904
597.412
596.458
595.087
593.295
591.089
588.476
585.462
582.054
578.26
574.088
569.548
564.652
559.41
553.833
547.934
541.725
535.223
528.442
521.399
514.109
506.59
498.857
490.928
482.822
474.556
466.147
457.614
448.975
440.244
431.439
422.574
413.663
404.721
395.758
386.789
377.825
368.88
359.967
351.099
342.291
333.555
324.909
316.366
307.944
299.659
291.531
283.581
275.83
268.298
261.006
253.978
247.236
240.793
234.667
228.875
223.431
218.336
213.61
209.168
205.098
16.2899
7.75729
5.91745
5.27589
5.04111
4.99737
5.06721
5.21575
5.42408
5.68215
5.9841
6.32448
6.70346
7.12126
7.57861
8.07687
8.61803
9.20491
9.84049
10.5281
11.2718
12.0765
12.9475
13.8907
14.9128
16.0202
17.2201
18.5204
19.9293
21.4556
23.1084
24.8975
26.8325
28.9238
31.1817
33.6167
36.2392
39.0595
42.0876
45.333
48.8048
52.5114
56.4614
60.6633
65.1252
69.8552
74.8605
80.1525
85.7294
91.5905
97.7351
104.162
110.87
117.857
125.119
132.652
140.451
148.511
156.825
165.386
174.186
183.217
192.469
201.932
211.597
221.453
231.489
241.692
252.051
262.553
273.185
283.935
294.788
305.73
316.748
327.825
338.948
350.1
361.267
372.431
383.577
394.689
405.748
416.738
427.641
438.441
449.119
459.658
470.039
480.246
490.259
500.062
509.637
518.966
528.032
536.82
545.311
553.492
561.347
568.862
576.025
582.822
589.242
595.272
600.904
606.129
610.942
615.333
619.298
622.831
625.932
628.596
630.82
632.609
633.961
634.866
635.353
635.369
635.002
634.149
632.883
631.196
629.094
626.581
623.664
620.35
616.645
612.556
608.09
603.254
598.057
592.512
586.627
580.413
573.882
567.045
559.918
552.516
544.852
536.942
528.801
520.446
511.894
503.16
494.263
485.22
476.048
466.765
457.387
447.929
438.407
428.834
419.225
409.592
399.947
390.304
380.677
371.08
361.527
352.035
342.617
333.293
324.078
314.991
306.053
297.285
288.711
280.341
272.21
264.343
256.769
249.518
242.627
236.105
229.954
224.188
218.806
213.827
209.156
204.924
15.9818
7.64112
5.84249
5.22278
5.00619
4.98093
5.07039
5.23808
5.46907
5.75494
6.09127
6.47644
6.90992
7.3928
7.92725
8.51643
9.16437
9.87601
10.6569
11.5129
12.4512
13.4795
14.6069
15.8427
17.1972
18.6811
20.3061
22.0842
24.0282
26.1511
28.466
30.9861
33.7247
36.695
39.9093
43.3796
47.1167
51.1311
55.4321
60.027
64.9216
70.1212
75.6306
81.4528
87.5893
94.0429
100.814
107.903
115.296
122.982
130.95
139.191
147.694
156.449
165.444
174.667
184.107
193.753
203.592
213.612
223.801
234.148
244.64
255.265
266.012
276.868
287.82
298.859
309.971
321.144
332.367
343.627
354.911
366.209
377.505
388.789
400.047
411.266
422.433
433.533
444.553
455.479
466.295
476.988
487.542
497.943
508.175
518.223
528.071
537.704
547.106
556.261
565.154
573.77
582.093
590.11
597.806
605.167
612.181
618.836
625.123
631.029
636.544
641.658
646.364
650.657
654.533
657.986
661.008
663.599
665.764
667.496
668.789