/*--------------------------------*- C++ -*----------------------------------*\
  =========                 |
  \\      /  F ield         | OpenFOAM: The Open Source CFD Toolbox
   \\    /   O peration     | Website:  https://openfoam.org
    \\  /    A nd           | Version:  11
     \\/     M anipulation  |
\*---------------------------------------------------------------------------*/
FoamFile
{
    format      ascii;
    class       volScalarField;
    location    "200";
    object      k;
}
// * * * * * * * * * * * * * * * * * * * * * * * * * * * * * * * * * * * * * //

dimensions      [0 2 -2 0 0 0 0];

internalField   nonuniform List<scalar> 
12225
(
0.362813
0.343993
0.327744
0.30982
0.295399
0.283485
0.27551
0.270285
0.270341
0.271882
0.276061
0.280699
0.289888
0.295772
0.306697
0.313251
0.324076
0.334092
0.440186
0.468698
0.461605
0.44837
0.450349
0.458314
0.474539
0.498561
0.524394
0.55215
0.58076
0.606214
0.633886
0.653965
0.679869
0.693342
0.717749
0.72881
0.390541
0.417873
0.420231
0.416826
0.411628
0.407804
0.408018
0.410037
0.414557
0.421403
0.430737
0.439722
0.451206
0.461179
0.472901
0.483629
0.493621
0.506313
0.377546
0.386982
0.391406
0.391341
0.390222
0.387896
0.385662
0.384081
0.382882
0.382896
0.383388
0.384326
0.386307
0.388476
0.390928
0.394279
0.396557
0.401081
0.374561
0.37609
0.378411
0.378665
0.378263
0.377205
0.375488
0.373738
0.37201
0.370454
0.369259
0.368106
0.367383
0.366808
0.366447
0.366348
0.366364
0.36673
0.373814
0.37271
0.372645
0.372383
0.37176
0.370817
0.369553
0.368082
0.366571
0.364976
0.363528
0.362063
0.360755
0.359529
0.358397
0.35743
0.356444
0.355792
0.373782
0.371742
0.370386
0.369287
0.368233
0.367114
0.365915
0.364587
0.363238
0.361808
0.360422
0.359023
0.357677
0.356382
0.35512
0.353966
0.352794
0.351805
0.37382
0.37156
0.369634
0.367977
0.3665
0.365108
0.363775
0.362429
0.361107
0.359766
0.35845
0.357143
0.355863
0.354622
0.3534
0.352249
0.351098
0.350052
0.373832
0.371553
0.369449
0.367525
0.365776
0.364153
0.362645
0.361199
0.359817
0.358473
0.357169
0.355902
0.354667
0.353474
0.352307
0.351195
0.350096
0.349072
0.373831
0.37156
0.369418
0.367405
0.365529
0.363772
0.362133
0.360585
0.359122
0.357728
0.356394
0.355117
0.353888
0.35271
0.351569
0.350481
0.349419
0.34842
0.373829
0.37156
0.369413
0.367378
0.365458
0.363645
0.361937
0.360324
0.358798
0.357353
0.355979
0.354672
0.353424
0.352235
0.351094
0.350008
0.348958
0.347968
0.373828
0.371558
0.369409
0.36737
0.365439
0.363609
0.361875
0.360234
0.358677
0.357201
0.3558
0.354468
0.3532
0.351994
0.350842
0.349747
0.348695
0.3477
0.373827
0.371556
0.369405
0.367365
0.36543
0.363593
0.361851
0.360197
0.358626
0.357134
0.355715
0.354367
0.353084
0.351864
0.3507
0.349594
0.348535
0.347531
0.373827
0.371555
0.369401
0.367359
0.365422
0.363583
0.361837
0.360178
0.3586
0.357101
0.355674
0.354317
0.353024
0.351794
0.350622
0.349506
0.34844
0.347427
0.373826
0.371553
0.369398
0.367355
0.365416
0.363575
0.361826
0.360164
0.358584
0.357081
0.355651
0.354289
0.352993
0.351758
0.35058
0.349459
0.348388
0.347369
0.373826
0.371552
0.369396
0.367351
0.36541
0.363567
0.361817
0.360153
0.358572
0.357067
0.355634
0.354271
0.352972
0.351734
0.350554
0.34943
0.348357
0.347334
0.373825
0.371551
0.369394
0.367348
0.365406
0.363562
0.36181
0.360145
0.358562
0.357055
0.355621
0.354256
0.352955
0.351716
0.350535
0.349408
0.348334
0.347309
0.373825
0.371551
0.369393
0.367346
0.365403
0.363558
0.361805
0.360139
0.358555
0.357047
0.355612
0.354246
0.352944
0.351703
0.350521
0.349393
0.348317
0.347291
0.373825
0.37155
0.369393
0.367346
0.365402
0.363557
0.361804
0.360137
0.358552
0.357044
0.355608
0.354241
0.352938
0.351697
0.350514
0.349385
0.348308
0.347281
0.373825
0.371551
0.369393
0.367347
0.365404
0.363559
0.361806
0.36014
0.358555
0.357047
0.355611
0.354244
0.352942
0.351701
0.350517
0.349389
0.348313
0.347285
0.373825
0.371551
0.369395
0.367349
0.365407
0.363563
0.361811
0.360146
0.358562
0.357055
0.355621
0.354256
0.352955
0.351716
0.350534
0.349408
0.348333
0.347308
0.373826
0.371552
0.369397
0.367352
0.365412
0.363571
0.361822
0.360161
0.358583
0.357083
0.355657
0.354299
0.353007
0.351775
0.350603
0.349484
0.348418
0.347399
0.373826
0.371554
0.369399
0.367359
0.365429
0.363603
0.361875
0.36024
0.358691
0.35722
0.355823
0.354494
0.353227
0.352019
0.350866
0.349763
0.348711
0.347701
0.373828
0.371551
0.369412
0.367417
0.365556
0.363819
0.362189
0.360651
0.359189
0.357794
0.356456
0.355172
0.353936
0.352746
0.351601
0.350496
0.349437
0.34841
0.373823
0.371554
0.369605
0.367893
0.366339
0.364892
0.363495
0.362122
0.360761
0.359414
0.358081
0.35677
0.355489
0.354238
0.353029
0.351856
0.350734
0.349645
0.373788
0.371991
0.371113
0.370266
0.36936
0.368311
0.367048
0.36563
0.364121
0.362575
0.36103
0.359522
0.358073
0.356682
0.355382
0.354142
0.35301
0.351924
0.374355
0.375572
0.377775
0.377858
0.377288
0.375886
0.373835
0.371641
0.369505
0.367482
0.365664
0.364084
0.36271
0.361535
0.36061
0.359818
0.359289
0.3588
0.379125
0.394296
0.398249
0.396573
0.392538
0.387603
0.383646
0.380448
0.378268
0.376852
0.376496
0.37674
0.377414
0.378689
0.38044
0.38242
0.384825
0.387135
0.408394
0.42754
0.422416
0.411055
0.402226
0.397923
0.398625
0.400962
0.406068
0.413052
0.420997
0.429825
0.438832
0.448185
0.457301
0.466545
0.475314
0.484173
0.36605
0.353416
0.341988
0.33021
0.318982
0.308381
0.299411
0.29167
0.285404
0.280333
0.276682
0.273866
0.272311
0.271173
0.27121
0.271472
0.272188
0.273388
0.00159281
0.00770384
0.0136974
0.0193691
0.0253675
0.0317492
0.038563
0.0457682
0.0532465
0.0608488
0.0684288
0.0758641
0.0830565
0.0899304
0.0964221
0.102478
0.108047
0.113089
0.117575
0.121506
0.124927
0.127728
0.129901
0.133178
0.136172
0.139582
0.142823
0.149238
0.153441
0.156707
0.158808
0.159325
0.158912
0.155994
0.15171
0.14701
0.145249
0.155209
0.161472
0.16957
0.177147
0.185218
0.193317
0.201651
0.210117
0.218765
0.227565
0.236537
0.245666
0.254966
0.264425
0.274055
0.283845
0.293806
0.303925
0.314215
0.324661
0.335275
0.346041
0.356971
0.368046
0.37928
0.390653
0.402175
0.413826
0.425616
0.437524
0.449559
0.461697
0.473948
0.486287
0.498723
0.511229
0.523813
0.536449
0.549141
0.561863
0.57462
0.587383
0.600157
0.612911
0.625649
0.638339
0.65098
0.663539
0.676013
0.688365
0.700586
0.712641
0.724512
0.736165
0.747579
0.758743
0.769682
0.780488
0.79104
0.801351
0.811394
0.821166
0.830645
0.839818
0.848668
0.857179
0.865335
0.87312
0.88052
0.88752
0.894105
0.90026
0.905973
0.911231
0.91602
0.920332
0.924154
0.927482
0.930304
0.932622
0.93443
0.935738
0.936563
0.936814
0.936314
0.935504
0.933985
0.932105
0.929866
0.927054
0.923698
0.919881
0.915589
0.910853
0.905681
0.900102
0.894128
0.887788
0.881098
0.874072
0.866756
0.859186
0.851403
0.843446
0.83535
0.827148
0.818871
0.810548
0.802212
0.793892
0.78562
0.777424
0.769335
0.761382
0.753591
0.745987
0.738595
0.731439
0.724539
0.717915
0.711584
0.70556
0.699848
0.694465
0.689417
0.6847
0.680333
0.676587
0.675628
0.675725
0.675789
0.676294
0.677204
0.678448
0.679923
0.681584
0.683432
0.685338
0.687158
0.688607
0.689106
0.687448
0.666804
0.00680155
0.0225732
0.0327479
0.0406257
0.0477919
0.0549494
0.0623602
0.0700749
0.0780284
0.0861072
0.0941906
0.102174
0.109974
0.117531
0.124796
0.131733
0.138311
0.144509
0.150318
0.155759
0.160897
0.165864
0.170917
0.17645
0.182762
0.190181
0.198428
0.206357
0.213731
0.220864
0.227891
0.234985
0.24272
0.252005
0.265039
0.275857
0.286381
0.298735
0.311197
0.324329
0.3377
0.35141
0.365426
0.379759
0.394399
0.409351
0.424611
0.440184
0.45607
0.472274
0.488797
0.505642
0.52281
0.540305
0.558127
0.57628
0.594761
0.613574
0.632715
0.652186
0.671983
0.692106
0.712549
0.73331
0.754383
0.775764
0.797444
0.819418
0.841675
0.864209
0.887007
0.910061
0.933355
0.956881
0.980621
1.00456
1.02869
1.05298
1.07743
1.102
1.12669
1.15147
1.17632
1.20122
1.22613
1.25104
1.27591
1.3007
1.32539
1.34993
1.37428
1.39838
1.42217
1.44557
1.46849
1.49108
1.51335
1.53528
1.55683
1.57799
1.5987
1.61895
1.63869
1.65789
1.67653
1.69455
1.71193
1.72864
1.74464
1.7599
1.77438
1.78805
1.80089
1.81286
1.82393
1.8341
1.84332
1.85158
1.85887
1.86516
1.87045
1.87473
1.87797
1.87988
1.8808
1.88113
1.88044
1.87857
1.8757
1.87186
1.86706
1.86135
1.85474
1.84729
1.83904
1.83001
1.82028
1.80988
1.79889
1.78736
1.77538
1.76301
1.75032
1.73737
1.72422
1.71094
1.69759
1.68424
1.67095
1.65779
1.64481
1.63208
1.61965
1.60757
1.59591
1.58471
1.57402
1.56388
1.55433
1.54539
1.5371
1.52947
1.52252
1.51625
1.51072
1.50628
1.50253
1.49952
1.49719
1.49546
1.49419
1.4932
1.49237
1.49156
1.49056
1.4892
1.4871
1.48428
1.4778
1.45428
0.0134933
0.0366412
0.0496278
0.0594321
0.0681521
0.0765459
0.0849494
0.0934909
0.102181
0.110967
0.119777
0.128539
0.137196
0.14571
0.154058
0.162228
0.170222
0.178056
0.185763
0.193409
0.201107
0.209032
0.217415
0.226489
0.236407
0.247146
0.258389
0.269858
0.281346
0.293047
0.305139
0.317799
0.331237
0.34565
0.360946
0.376149
0.391685
0.407816
0.42433
0.441291
0.458645
0.476387
0.494511
0.513018
0.531906
0.551176
0.570829
0.590868
0.611293
0.632108
0.653313
0.674912
0.696905
0.719294
0.74208
0.765262
0.78884
0.812813
0.837179
0.861936
0.88708
0.912607
0.938512
0.964789
0.99143
1.01843
1.04578
1.07346
1.10147
1.1298
1.15843
1.18735
1.21654
1.24599
1.27568
1.30559
1.3357
1.366
1.39645
1.42705
1.45775
1.48855
1.5194
1.55029
1.58119
1.61206
1.64287
1.67359
1.70418
1.73461
1.76484
1.79483
1.82455
1.85397
1.88306
1.91179
1.94015
1.96809
1.99557
2.02255
2.04898
2.07483
2.10005
2.1246
2.14844
2.17151
2.19378
2.21521
2.23574
2.25535
2.27397
2.29159
2.30814
2.32361
2.33795
2.35113
2.36312
2.3739
2.38343
2.39171
2.3987
2.40441
2.40883
2.41184
2.41339
2.41391
2.41327
2.41123
2.40791
2.40336
2.39759
2.39065
2.38259
2.37344
2.36326
2.35211
2.34004
2.32714
2.31346
2.29909
2.28412
2.26863
2.2527
2.23641
2.21985
2.20309
2.18622
2.16932
2.15246
2.13572
2.11918
2.10291
2.08699
2.07148
2.05645
2.04196
2.02806
2.01481
2.00226
1.99044
1.97938
1.96911
1.95964
1.95098
1.94314
1.93617
1.92997
1.92455
1.91979
1.9156
1.91184
1.90836
1.90499
1.90155
1.89788
1.89388
1.88931
1.88439
1.87702
1.85932
0.0205022
0.0494908
0.0651019
0.076605
0.0865856
0.095969
0.105179
0.114413
0.123743
0.13317
0.142662
0.15218
0.161687
0.171163
0.180601
0.190009
0.199409
0.208837
0.218345
0.22801
0.237933
0.24824
0.25907
0.270546
0.282733
0.295601
0.309031
0.322898
0.337147
0.351838
0.36705
0.382859
0.399323
0.416453
0.434163
0.452278
0.470801
0.489746
0.509097
0.528872
0.549073
0.5697
0.590754
0.612237
0.634151
0.656499
0.679282
0.702505
0.726169
0.750278
0.774833
0.799837
0.825291
0.851198
0.877558
0.904371
0.931637
0.959354
0.987521
1.01613
1.04519
1.07468
1.10461
1.13496
1.16573
1.19691
1.22849
1.26046
1.2928
1.3255
1.35856
1.39194
1.42564
1.45963
1.4939
1.52842
1.56318
1.59815
1.6333
1.66861
1.70405
1.7396
1.77522
1.81089
1.84656
1.88221
1.91781
1.95332
1.98871
2.02393
2.05895
2.09375
2.12826
2.16247
2.19633
2.22979
2.26283
2.29538
2.32741
2.35886
2.38969
2.41985
2.44928
2.47795
2.50579
2.53276
2.55881
2.58388
2.60793
2.63091
2.65276
2.67345
2.69292
2.71114
2.72806
2.74364
2.75784
2.77064
2.78201
2.79191
2.80034
2.80727
2.81271
2.81662
2.81884
2.81964
2.81913
2.81706
2.81349
2.80848
2.80206
2.79426
2.78514
2.77475
2.76314
2.75038
2.73654
2.7217
2.70593
2.68934
2.672
2.65402
2.63549
2.6165
2.59714
2.57751
2.5577
2.5378
2.51791
2.4981
2.47846
2.45908
2.44005
2.42143
2.4033
2.38573
2.36879
2.35253
2.33701
2.32227
2.30834
2.29525
2.283
2.27159
2.26102
2.25129
2.24234
2.23415
2.22661
2.2196
2.213
2.20669
2.20049
2.19424
2.18783
2.1812
2.1743
2.16744
2.15916
2.14455
0.0272634
0.0612552
0.0792742
0.0923709
0.103529
0.11382
0.123758
0.133603
0.143485
0.153457
0.163528
0.173689
0.183928
0.194241
0.204632
0.215121
0.225736
0.236522
0.247531
0.25883
0.270498
0.282621
0.295283
0.308554
0.322466
0.337012
0.352157
0.367851
0.384069
0.400821
0.41813
0.436023
0.454514
0.473594
0.493227
0.51336
0.533964
0.555018
0.576518
0.598473
0.62089
0.643773
0.667128
0.690958
0.715268
0.740061
0.765342
0.791115
0.817383
0.84415
0.87142
0.899196
0.92748
0.956275
0.985582
1.0154
1.04574
1.07658
1.10794
1.1398
1.17217
1.20504
1.2384
1.27225
1.30658
1.34138
1.37664
1.41235
1.44849
1.48505
1.52201
1.55935
1.59706
1.63512
1.6735
1.71218
1.75113
1.79033
1.82975
1.86937
1.90914
1.94905
1.98905
2.02912
2.06921
2.10929
2.14933
2.18929
2.22912
2.2688
2.30827
2.34749
2.38643
2.42503
2.46324
2.50102
2.53832
2.57508
2.61126
2.64681
2.68166
2.71576
2.74907
2.78151
2.81304
2.8436
2.87314
2.90159
2.92891
2.95503
2.97991
3.00349
3.02571
3.04653
3.06591
3.08379
3.10015
3.11493
3.1281
3.13964
3.14953
3.15774
3.16427
3.16911
3.17213
3.17338
3.17316
3.17121
3.16758
3.16232
3.15544
3.147
3.13705
3.12564
3.11284
3.0987
3.08332
3.06677
3.04915
3.03054
3.01104
2.99076
2.96981
2.94827
2.92626
2.90388
2.88122
2.8584
2.8355
2.81263
2.78988
2.76733
2.74509
2.72324
2.70185
2.68101
2.66078
2.64124
2.62242
2.60439
2.58717
2.5708
2.55528
2.54062
2.52681
2.51381
2.50161
2.49014
2.47933
2.46906
2.45923
2.44972
2.44038
2.43109
2.42178
2.41245
2.40315
2.39427
2.38469
2.37104
0.0335726
0.071796
0.0919734
0.10654
0.118799
0.129945
0.140564
0.150972
0.161347
0.171785
0.182334
0.193016
0.203845
0.214829
0.225987
0.237342
0.248928
0.260788
0.272969
0.285528
0.298523
0.312013
0.326052
0.340685
0.355934
0.371809
0.388297
0.405381
0.423048
0.441294
0.460123
0.479539
0.499543
0.520125
0.541269
0.562952
0.585154
0.607859
0.631064
0.654772
0.678987
0.703716
0.728964
0.754737
0.781041
0.80788
0.835262
0.863191
0.891673
0.920713
0.950316
0.980486
1.01123
1.04254
1.07444
1.10691
1.13996
1.1736
1.20781
1.2426
1.27797
1.31391
1.35041
1.38747
1.42508
1.46323
1.50192
1.54111
1.58081
1.621
1.66165
1.70275
1.74428
1.78621
1.82852
1.87118
1.91417
1.95746
2.00101
2.04479
2.08877
2.13291
2.17718
2.22154
2.26594
2.31036
2.35473
2.39904
2.44322
2.48724
2.53104
2.57458
2.6178
2.66066
2.7031
2.74506
2.7865
2.82735
2.86756
2.90707
2.94583
2.98377
3.02083
3.05696
3.09208
3.12615
3.15909
3.19085
3.22137
3.25059
3.27844
3.30488
3.32983
3.35326
3.3751
3.3953
3.41383
3.43063
3.44567
3.45892
3.47034
3.47992
3.48764
3.49349
3.49742
3.49929
3.49949
3.4978
3.49425
3.48886
3.48168
3.47274
3.46209
3.4498
3.43593
3.42055
3.40374
3.38558
3.36618
3.34563
3.32404
3.30151
3.27815
3.25407
3.22939
3.20421
3.17865
3.1528
3.12679
3.10071
3.07466
3.04875
3.02308
2.99772
2.97278
2.94833
2.92445
2.90121
2.87867
2.85689
2.8359
2.81574
2.79643
2.77797
2.76036
2.74358
2.72759
2.71236
2.69781
2.68385
2.6704
2.65736
2.64461
2.63208
2.61971
2.60758
2.5958
2.58475
2.57351
2.55955
0.0392726
0.0810116
0.103065
0.118939
0.132197
0.14413
0.155381
0.166309
0.177129
0.187971
0.198918
0.21002
0.221311
0.232818
0.244568
0.256592
0.268924
0.281605
0.294677
0.308185
0.322175
0.336689
0.351766
0.367435
0.383717
0.40062
0.418145
0.436287
0.45504
0.474399
0.494361
0.514924
0.536086
0.557841
0.580179
0.603091
0.626566
0.650597
0.67518
0.700319
0.726017
0.752279
0.779114
0.806527
0.834525
0.863117
0.89231
0.922111
0.952526
0.983565
1.01523
1.04753
1.08048
1.11406
1.1483
1.18319
1.21874
1.25495
1.29181
1.32933
1.36751
1.40634
1.44581
1.48592
1.52667
1.56803
1.61001
1.65258
1.69573
1.73944
1.78369
1.82846
1.87373
1.91947
1.96566
2.01226
2.05924
2.10657
2.15422
2.20214
2.2503
2.29866
2.34718
2.39581
2.44451
2.49324
2.54194
2.59057
2.63908
2.68741
2.73551
2.78333
2.83081
2.87789
2.92451
2.97061
3.01614
3.06103
3.10523
3.14867
3.19128
3.233
3.27377
3.31353
3.3522
3.38973
3.42605
3.46108
3.49477
3.52706
3.55787
3.58715
3.61484
3.64087
3.66518
3.68773
3.70846
3.72733
3.74428
3.75928
3.7723
3.78332
3.7923
3.79925
3.80414
3.80681
3.80752
3.80619
3.80282
3.79742
3.79002
3.78068
3.76944
3.75635
3.74149
3.72494
3.70676
3.68706
3.66592
3.64346
3.61978
3.59498
3.5692
3.54254
3.51511
3.48705
3.45846
3.42947
3.40017
3.3707
3.34114
3.31162
3.28224
3.25308
3.22425
3.19583
3.16792
3.14057
3.11387
3.08788
3.06265
3.03821
3.0146
2.99184
2.96993
2.94887
2.92862
2.90917
2.89047
2.87245
2.85505
2.83819
2.82181
2.80584
2.7903
2.77527
2.76091
2.74757
2.73438
2.71943
0.0442524
0.0888436
0.112475
0.129467
0.143592
0.156226
0.168048
0.179448
0.190667
0.201865
0.213149
0.224591
0.236246
0.248155
0.260355
0.272883
0.285774
0.299066
0.312797
0.327005
0.341725
0.356991
0.372832
0.389269
0.406319
0.423993
0.442295
0.461226
0.480783
0.500966
0.521772
0.543199
0.565245
0.587908
0.611185
0.635071
0.659564
0.684661
0.710364
0.736675
0.763599
0.791145
0.819318
0.848129
0.877586
0.907699
0.938476
0.969928
1.00206
1.03489
1.06842
1.10266
1.13762
1.1733
1.20972
1.24687
1.28476
1.32339
1.36277
1.4029
1.44377
1.48538
1.52772
1.5708
1.6146
1.6591
1.70431
1.7502
1.79675
1.84395
1.89177
1.9402
1.98919
2.03873
2.08878
2.13932
2.19029
2.24168
2.29343
2.3455
2.39786
2.45045
2.50323
2.55615
2.60916
2.66221
2.71524
2.76819
2.82102
2.87366
2.92605
2.97813
3.02984
3.08111
3.13188
3.18208
3.23166
3.28055
3.32868
3.37598
3.42239
3.46784
3.51226
3.55558
3.59773
3.63866
3.67827
3.71652
3.75332
3.78861
3.82233
3.85441
3.88478
3.91337
3.94014
3.96501
3.98793
4.00885
4.02772
4.0445
4.05915
4.07163
4.08192
4.09001
4.09588
4.09941
4.10072
4.09984
4.09673
4.09139
4.08386
4.07419
4.06241
4.0486
4.03282
4.01515
3.99565
3.97444
3.9516
3.92724
3.90147
3.8744
3.84616
3.81687
3.78664
3.75561
3.72389
3.69161
3.65888
3.62583
3.59256
3.5592
3.52585
3.49261
3.45959
3.42688
3.39457
3.36275
3.3315
3.30089
3.27099
3.24185
3.21351
3.186
3.15936
3.13358
3.10867
3.08463
3.06142
3.03902
3.01739
2.99649
2.97628
2.95675
2.93793
2.91994
2.90293
2.8872
2.87193
2.85561
0.0484451
0.0952807
0.120188
0.138098
0.152952
0.166185
0.178504
0.190319
0.201893
0.213401
0.22497
0.236691
0.248633
0.260849
0.273386
0.286283
0.299579
0.31331
0.327509
0.342211
0.357445
0.373239
0.389616
0.406594
0.424188
0.442409
0.461263
0.480756
0.500888
0.521663
0.54308
0.565141
0.587847
0.611199
0.635198
0.659845
0.685142
0.711091
0.737698
0.764968
0.792909
0.821529
0.85084
0.880851
0.911574
0.943021
0.975203
1.00813
1.04182
1.07628
1.11152
1.14756
1.18439
1.22204
1.26051
1.29981
1.33994
1.38091
1.42271
1.46537
1.50886
1.5532
1.59836
1.64436
1.69118
1.7388
1.78722
1.83641
1.88636
1.93705
1.98844
2.04052
2.09326
2.14661
2.20055
2.25504
2.31003
2.36549
2.42137
2.47761
2.53418
2.59102
2.64808
2.70529
2.76261
2.81997
2.87731
2.93458
2.9917
3.04861
3.10525
3.16155
3.21743
3.27283
3.32769
3.38192
3.43547
3.48826
3.54022
3.59129
3.64138
3.69044
3.73839
3.78515
3.83066
3.87484
3.91763
3.95895
3.99874
4.03691
4.07341
4.10817
4.14111
4.17217
4.20128
4.22839
4.25342
4.27634
4.29707
4.31558
4.33181
4.34574
4.35734
4.36656
4.37341
4.37782
4.3798
4.37941
4.37661
4.37138
4.36377
4.35381
4.34157
4.32709
4.31044
4.2917
4.27094
4.24825
4.22375
4.19752
4.16968
4.14034
4.10964
4.07769
4.04462
4.01056
3.97564
3.93997
3.9037
3.86693
3.8298
3.79241
3.75489
3.71734
3.67988
3.64261
3.60563
3.56904
3.53292
3.49737
3.46245
3.42825
3.39482
3.36222
3.33048
3.29965
3.26975
3.2408
3.2128
3.18577
3.1597
3.13458
3.11041
3.08721
3.06504
3.04403
3.02433
3.00619
2.98877
2.97081
0.0518211
0.100357
0.126255
0.144889
0.160326
0.174049
0.186782
0.198951
0.210826
0.222599
0.234407
0.246353
0.258517
0.270962
0.283741
0.296897
0.31047
0.324496
0.339006
0.354032
0.3696
0.385736
0.402457
0.419784
0.437728
0.456304
0.475519
0.49538
0.515895
0.537069
0.558905
0.58141
0.604586
0.628441
0.652979
0.678205
0.704127
0.730751
0.758085
0.786139
0.814925
0.844453
0.874738
0.905792
0.93763
0.970266
1.00372
1.03799
1.07311
1.10909
1.14593
1.18366
1.22229
1.26182
1.30227
1.34365
1.38596
1.42921
1.47341
1.51856
1.56465
1.61169
1.65967
1.70859
1.75842
1.80917
1.86081
1.91332
1.96669
2.02088
2.07588
2.13164
2.18813
2.24533
2.30318
2.36164
2.42067
2.48022
2.54023
2.60066
2.66144
2.72251
2.78383
2.84531
2.9069
2.96854
3.03014
3.09165
3.153
3.2141
3.2749
3.33531
3.39526
3.45467
3.51347
3.57159
3.62895
3.68548
3.74111
3.79575
3.84935
3.90181
3.95308
4.00308
4.05172
4.09896
4.1447
4.18888
4.23143
4.27227
4.31134
4.34857
4.38389
4.41722
4.44851
4.47768
4.50467
4.52943
4.5519
4.57202
4.58975
4.60505
4.61787
4.6282
4.63599
4.64123
4.64389
4.644
4.64155
4.63646
4.62879
4.61859
4.60592
4.59083
4.57337
4.55362
4.53165
4.50756
4.48143
4.45338
4.42352
4.39196
4.35882
4.32423
4.28832
4.25122
4.21306
4.17397
4.13408
4.09352
4.05242
4.0109
3.96908
3.92708
3.88501
3.843
3.80115
3.75957
3.71836
3.67762
3.63745
3.59793
3.55915
3.52118
3.4841
3.44796
3.41282
3.37873
3.34575
3.3139
3.28322
3.25375
3.22552
3.19859
3.17303
3.14899
3.12659
3.10604
3.0865
3.06699
0.054387
0.104146
0.130774
0.149949
0.16583
0.179933
0.192994
0.205445
0.217566
0.229552
0.241549
0.253668
0.265995
0.278599
0.291536
0.304856
0.318599
0.3328
0.347491
0.362701
0.378456
0.394778
0.411687
0.4292
0.447332
0.466099
0.485511
0.50558
0.526316
0.547727
0.569823
0.592612
0.616105
0.640309
0.665236
0.690896
0.7173
0.744457
0.772381
0.801085
0.830586
0.860898
0.892038
0.924023
0.956872
0.990601
1.02523
1.06077
1.09725
1.13468
1.17307
1.21245
1.25282
1.29421
1.33662
1.38007
1.42456
1.4701
1.51669
1.56435
1.61307
1.66284
1.71366
1.76552
1.81842
1.87232
1.92722
1.9831
2.03992
2.09766
2.15629
2.21577
2.27605
2.33711
2.39888
2.46133
2.52439
2.58802
2.65215
2.71672
2.78167
2.84693
2.91243
2.9781
3.04388
3.10968
3.17543
3.24106
3.30647
3.37161
3.43639
3.50072
3.56453
3.62774
3.69026
3.75203
3.81295
3.87296
3.93197
3.98992
4.04671
4.10229
4.15657
4.20948
4.26095
4.31091
4.35928
4.406
4.45099
4.49419
4.53552
4.57492
4.61231
4.64763
4.68082
4.7118
4.74051
4.76689
4.79089
4.81244
4.83149
4.84801
4.86194
4.87325
4.88192
4.88792
4.89121
4.8918
4.88972
4.88476
4.87706
4.86665
4.85359
4.83794
4.81973
4.79903
4.77593
4.75051
4.72285
4.69306
4.66125
4.62752
4.59201
4.55485
4.51615
4.47605
4.43469
4.3922
4.34871
4.30436
4.25927
4.21358
4.16742
4.1209
4.07416
4.02732
3.9805
3.93381
3.88738
3.84132
3.79575
3.75076
3.70647
3.66298
3.62039
3.57878
3.53825
3.49888
3.46077
3.42399
3.38861
3.35471
3.32236
3.29166
3.2627
3.23562
3.21054
3.18762
3.16605
3.14508
0.0561836
0.10676
0.13388
0.153429
0.169623
0.183998
0.197297
0.209956
0.222257
0.2344
0.246532
0.258769
0.271201
0.283902
0.29693
0.310334
0.324155
0.338431
0.353192
0.368468
0.384284
0.400662
0.417625
0.435191
0.453379
0.472204
0.491682
0.511828
0.532657
0.554181
0.576415
0.599371
0.623063
0.647506
0.672714
0.698701
0.725485
0.75308
0.781503
0.810774
0.840912
0.871937
0.903871
0.936735
0.970549
1.00534
1.04111
1.07791
1.11574
1.15462
1.19457
1.23562
1.27777
1.32105
1.36547
1.41104
1.45776
1.50566
1.55472
1.60496
1.65638
1.70896
1.7627
1.81759
1.87361
1.93075
1.98899
2.04828
2.10862
2.16995
2.23225
2.29546
2.35955
2.42447
2.49015
2.55655
2.62361
2.69125
2.75942
2.82805
2.89705
2.96637
3.03591
3.10561
3.17539
3.24515
3.31483
3.38433
3.45356
3.52246
3.59093
3.65888
3.72623
3.7929
3.85879
3.92384
3.98795
4.05104
4.11305
4.17388
4.23346
4.29173
4.34859
4.40398
4.45784
4.51008
4.56064
4.60946
4.65646
4.70157
4.74474
4.7859
4.82497
4.8619
4.89662
4.92906
4.95915
4.98685
5.01208
5.0348
5.05494
5.07246
5.08731
5.09946
5.10887
5.11552
5.11936
5.12038
5.11864
5.11384
5.10609
5.0955
5.0821
5.06593
5.04704
5.02549
5.00135
4.97469
4.9456
4.91418
4.88053
4.84477
4.807
4.76737
4.72599
4.683
4.63854
4.59274
4.54574
4.49766
4.44866
4.39886
4.34839
4.2974
4.246
4.19434
4.14255
4.09075
4.03908
3.98767
3.93665
3.88615
3.8363
3.78723
3.73906
3.69192
3.64594
3.60124
3.55794
3.51618
3.47606
3.43771
3.40123
3.36676
3.3344
3.30432
3.27661
3.25141
3.22791
3.20566
0.0572884
0.108331
0.135726
0.1555
0.171886
0.18643
0.199878
0.212667
0.22508
0.237319
0.249532
0.261834
0.274315
0.287049
0.300096
0.313508
0.327325
0.341587
0.356326
0.37157
0.387348
0.403682
0.420598
0.438117
0.45626
0.475047
0.494499
0.514633
0.53547
0.557029
0.579326
0.602382
0.626212
0.650837
0.676274
0.702541
0.729661
0.757657
0.786552
0.816373
0.847143
0.878887
0.911632
0.945402
0.980222
1.01612
1.05311
1.09123
1.13049
1.17093
1.21255
1.25538
1.29943
1.34473
1.39129
1.43912
1.48823
1.53862
1.5903
1.64327
1.69752
1.75305
1.80985
1.86789
1.92716
1.98763
2.04929
2.11208
2.17598
2.24094
2.30693
2.37388
2.44176
2.51049
2.58001
2.65028
2.7212
2.79272
2.86476
2.93724
3.01009
3.08321
3.15653
3.22996
3.30342
3.37681
3.45004
3.52303
3.59569
3.66792
3.73963
3.81074
3.88116
3.95079
4.01955
4.08736
4.15412
4.21976
4.28421
4.34737
4.40918
4.46955
4.52843
4.58573
4.64139
4.69534
4.74753
4.79787
4.84633
4.89282
4.93729
4.97969
5.01994
5.05798
5.09376
5.12721
5.15828
5.18689
5.213
5.23655
5.25747
5.27573
5.29127
5.30405
5.31403
5.32118
5.32546
5.32685
5.32541
5.32076
5.31297
5.30221
5.2885
5.27189
5.2524
5.23009
5.20502
5.17726
5.14688
5.11398
5.07866
5.04102
5.00117
4.95924
4.91536
4.86965
4.82226
4.77331
4.72295
4.67132
4.61855
4.56477
4.51015
4.45479
4.39887
4.3425
4.28584
4.22902
4.17219
4.11551
4.05912
4.00317
3.94781
3.8932
3.8395
3.78686
3.73546
3.68545
3.637
3.59028
3.54545
3.50267
3.4621
3.4239
3.38821
3.35519
3.32493
3.29755
3.27228
3.24894
0.0576762
0.108888
0.136437
0.156325
0.172801
0.18742
0.200935
0.213782
0.226241
0.238511
0.25074
0.263042
0.275509
0.288214
0.301218
0.314571
0.328318
0.342497
0.357142
0.372285
0.387954
0.404178
0.420982
0.438394
0.456437
0.475137
0.494519
0.514609
0.53543
0.557008
0.579366
0.602525
0.626508
0.651336
0.677032
0.703609
0.731104
0.759555
0.788993
0.819448
0.85095
0.883531
0.91722
0.952046
0.988037
1.02522
1.06362
1.10327
1.14419
1.1864
1.22993
1.27479
1.321
1.36858
1.41754
1.46789
1.51964
1.57278
1.62732
1.68325
1.74056
1.79925
1.85928
1.92064
1.9833
2.04723
2.11239
2.17874
2.24624
2.31483
2.38447
2.45509
2.52664
2.59904
2.67224
2.74615
2.8207
2.89581
2.9714
3.04739
3.12368
3.2002
3.27684
3.35352
3.43015
3.50663
3.58286
3.65876
3.73422
3.80916
3.88348
3.95709
4.02989
4.1018
4.17272
4.24257
4.31127
4.37874
4.44489
4.50965
4.57294
4.6347
4.69486
4.75334
4.81008
4.86503
4.91813
4.96932
5.01855
5.06575
5.11088
5.15389
5.19471
5.23329
5.26958
5.30352
5.33505
5.36412
5.39068
5.41466
5.43601
5.45468
5.47063
5.48379
5.49414
5.50162
5.50622
5.5079
5.50669
5.50219
5.49435
5.48345
5.4695
5.45252
5.43254
5.4096
5.38375
5.35504
5.32356
5.28938
5.25259
5.21329
5.17158
5.12759
5.08144
5.03325
4.98317
4.93132
4.87785
4.82289
4.76659
4.70908
4.65051
4.59103
4.53078
4.46991
4.40858
4.34694
4.28515
4.22337
4.16178
4.10054
4.03983
3.97983
3.92074
3.86274
3.80604
3.75084
3.69735
3.64578
3.59634
3.54923
3.50464
3.4627
3.42368
3.38775
3.355
3.32556
3.29868
3.27452
0.0575665
0.108721
0.136241
0.156117
0.172583
0.187194
0.200695
0.213522
0.225954
0.238192
0.25038
0.262634
0.275044
0.287681
0.300607
0.313872
0.327522
0.341596
0.35613
0.371158
0.386711
0.40282
0.419517
0.436833
0.454795
0.473431
0.492773
0.512853
0.533702
0.555351
0.577828
0.60116
0.625376
0.650508
0.676592
0.703629
0.731682
0.76079
0.790994
0.82233
0.854834
0.888546
0.9235
0.959722
0.997242
1.03609
1.07629
1.11788
1.16088
1.2053
1.25117
1.29851
1.34731
1.39761
1.44939
1.50267
1.55745
1.61372
1.67147
1.73069
1.79135
1.85344
1.91693
1.98178
2.04796
2.11543
2.18414
2.25403
2.32507
2.39717
2.4703
2.54437
2.61932
2.69508
2.77156
2.8487
2.9264
3.00459
3.08317
3.16205
3.24115
3.32038
3.39963
3.47881
3.55783
3.63659
3.715
3.79295
3.87035
3.9471
4.02312
4.09831
4.17257
4.24582
4.31797
4.38893
4.45863
4.52697
4.59389
4.65932
4.72318
4.78541
4.84594
4.90471
4.96167
5.01676
5.06994
5.12115
5.17035
5.2175
5.26254
5.30543
5.34614
5.3846
5.42077
5.4546
5.48604
5.51505
5.54157
5.56555
5.58693
5.60567
5.6217
5.63498
5.64547
5.65311
5.65787
5.65976
5.65875
5.65441
5.64654
5.63555
5.62143
5.6042
5.58386
5.56045
5.53401
5.50458
5.47222
5.43701
5.39901
5.35832
5.31505
5.26929
5.22118
5.17083
5.11837
5.06394
5.00767
4.94971
4.8902
4.82927
4.76708
4.70378
4.63952
4.57445
4.50875
4.44257
4.3761
4.30951
4.24299
4.17673
4.11092
4.04578
3.98154
3.91841
3.85663
3.79633
3.73786
3.68148
3.62746
3.57607
3.52751
3.48218
3.44017
3.40164
3.3667
3.33547
3.30725
3.28257
0.0571702
0.10809
0.135403
0.155151
0.171505
0.186007
0.199403
0.212123
0.224449
0.236577
0.248653
0.260788
0.273073
0.285578
0.298365
0.311486
0.324989
0.338916
0.353306
0.368197
0.383625
0.399629
0.416245
0.433514
0.451476
0.470167
0.489623
0.50988
0.530982
0.552978
0.575886
0.599738
0.624569
0.650412
0.677281
0.70522
0.734316
0.764622
0.796179
0.829026
0.863199
0.898729
0.935646
0.973983
1.01377
1.05504
1.09782
1.14215
1.18804
1.23549
1.2845
1.3351
1.38727
1.44102
1.49634
1.55323
1.61166
1.67163
1.7331
1.79606
1.86046
1.92627
1.99346
2.06197
2.13175
2.20276
2.27494
2.34823
2.42256
2.49787
2.57408
2.65114
2.72895
2.80745
2.88655
2.96618
3.04623
3.12663
3.2073
3.28813
3.36903
3.44992
3.5307
3.61127
3.69154
3.77142
3.85081
3.92961
4.00773
4.08507
4.16155
4.23708
4.31156
4.38492
4.45706
4.5279
4.59737
4.66539
4.7319
4.79682
4.8601
4.92167
4.98147
5.03945
5.09555
5.14976
5.20201
5.25228
5.30053
5.34671
5.39079
5.43275
5.47254
5.51013
5.54547
5.57853
5.60925
5.63761
5.66356
5.68705
5.70802
5.72643
5.74222
5.75533
5.7657
5.7733
5.7781
5.78011
5.77925
5.77506
5.7672
5.75619
5.742
5.72463
5.70409
5.6804
5.65357
5.62365
5.59067
5.55469
5.51577
5.47401
5.42947
5.38227
5.33253
5.28035
5.22586
5.16919
5.11048
5.04987
4.98749
4.92349
4.85802
4.79124
4.7233
4.65438
4.58463
4.51425
4.44342
4.37233
4.30117
4.23009
4.15938
4.08927
4.02002
3.95192
3.88519
3.82029
3.75739
3.69676
3.6387
3.58353
3.53161
3.48304
3.43814
3.39714
3.36015
3.32731
3.29794
3.27303
0.0562601
0.106727
0.133702
0.153205
0.169341
0.183641
0.196848
0.209393
0.221557
0.233536
0.245473
0.25748
0.269644
0.282038
0.294725
0.307761
0.321198
0.335083
0.349464
0.364385
0.379892
0.396027
0.412839
0.430382
0.448718
0.467871
0.487883
0.508801
0.530667
0.553502
0.577324
0.602221
0.628258
0.655495
0.684005
0.71383
0.745022
0.777628
0.811693
0.847252
0.884338
0.922979
0.963197
1.00501
1.04845
1.09351
1.14022
1.18858
1.23857
1.29019
1.34343
1.39829
1.45474
1.51276
1.57233
1.63342
1.696
1.76002
1.82545
1.89225
1.96037
2.02975
2.10036
2.17212
2.24499
2.3189
2.39379
2.4696
2.54627
2.62371
2.70187
2.78067
2.86004
2.9399
3.02017
3.10077
3.18163
3.26265
3.34376
3.42487
3.50589
3.58673
3.66732
3.74755
3.82733
3.90659
3.98523
4.06315
4.14029
4.21653
4.2918
4.36602
4.43911
4.51097
4.58155
4.65075