/*--------------------------------*- C++ -*----------------------------------*\
  =========                 |
  \\      /  F ield         | OpenFOAM: The Open Source CFD Toolbox
   \\    /   O peration     | Website:  https://openfoam.org
    \\  /    A nd           | Version:  11
     \\/     M anipulation  |
\*---------------------------------------------------------------------------*/
FoamFile
{
    format      ascii;
    class       volScalarField;
    location    "200";
    object      nut;
}
// * * * * * * * * * * * * * * * * * * * * * * * * * * * * * * * * * * * * * //

dimensions      [0 2 -1 0 0 0 0];

internalField   nonuniform List<scalar> 
12225
(
4.14924e-05
3.93409e-05
3.74829e-05
3.54331e-05
3.37838e-05
3.24212e-05
3.15092e-05
3.09116e-05
3.09181e-05
3.10938e-05
3.15725e-05
3.21007e-05
3.31529e-05
3.38245e-05
3.50729e-05
3.58157e-05
3.68825e-05
3.86236e-05
0.000332215
0.000215176
0.00017927
0.000157677
0.000146209
0.000138208
0.000132729
0.000131667
0.000129493
0.00013008
0.000129032
0.000129455
0.000128644
0.000128576
0.000128069
0.000127415
0.000127479
0.000125991
0.000668679
0.00045066
0.000355751
0.000309835
0.000275276
0.000251102
0.000231699
0.000217282
0.000202656
0.000192135
0.000182599
0.000175212
0.000169353
0.00016368
0.000160274
0.000155548
0.00015381
0.000149727
0.000801681
0.000691666
0.000572542
0.000500062
0.00044937
0.000411994
0.00038076
0.000356013
0.000333987
0.000314784
0.000298354
0.000281624
0.000270319
0.000256051
0.000248188
0.000236093
0.000230511
0.000220316
0.000839623
0.00081019
0.000740696
0.00067642
0.000623919
0.000581393
0.000545853
0.000514563
0.000489502
0.000464428
0.000445852
0.000424051
0.000409919
0.00039078
0.000379872
0.000362986
0.000354754
0.000339294
0.000850344
0.000843278
0.000819553
0.000786529
0.000750764
0.000715889
0.000685747
0.000656132
0.000632538
0.000607512
0.000588987
0.000567233
0.000552266
0.000533073
0.00052077
0.000503616
0.000493643
0.000477253
0.000851579
0.000851019
0.000843299
0.000833478
0.000817108
0.000796952
0.000777867
0.000756734
0.000738895
0.000719141
0.000703526
0.00068561
0.00067211
0.000655902
0.000644299
0.000629431
0.000619829
0.000604944
0.000851581
0.000851816
0.000850038
0.000847462
0.000841401
0.00083375
0.000824822
0.000813432
0.000802808
0.000790467
0.00077971
0.000767532
0.000757417
0.000745767
0.000736539
0.000725441
0.000717467
0.000705845
0.000851673
0.000851531
0.000851015
0.000850343
0.000848875
0.00084617
0.000843026
0.000838304
0.000833402
0.000827359
0.000821215
0.000814765
0.000808427
0.000801496
0.000795287
0.00078831
0.00078251
0.000774924
0.000851754
0.000851386
0.000851043
0.000850633
0.000850247
0.000849368
0.000848404
0.00084678
0.000844955
0.000842529
0.000839922
0.000836797
0.000833793
0.000830147
0.00082697
0.00082291
0.000819917
0.000815276
0.000851784
0.000851358
0.000851012
0.000850613
0.000850329
0.000849905
0.000849525
0.000848928
0.000848303
0.000847393
0.000846465
0.000845176
0.000843989
0.000842349
0.000840994
0.000839028
0.000837637
0.000835357
0.000851788
0.000851359
0.000850995
0.000850605
0.000850292
0.000849938
0.000849646
0.00084928
0.000848955
0.000848504
0.000848098
0.000847507
0.000846997
0.000846243
0.00084564
0.000844719
0.000844056
0.000842974
0.000851786
0.000851363
0.000850985
0.000850604
0.000850269
0.000849926
0.00084963
0.000849313
0.000849042
0.000848728
0.000848462
0.000848126
0.000847843
0.000847465
0.000847156
0.000846725
0.000846386
0.000845901
0.000851783
0.000851364
0.000850978
0.000850602
0.000850256
0.000849916
0.000849607
0.0008493
0.000849022
0.00084874
0.000848488
0.000848224
0.000847988
0.000847734
0.000847508
0.000847257
0.000847033
0.000846783
0.000851781
0.000851364
0.000850973
0.000850598
0.000850246
0.000849908
0.000849591
0.000849286
0.000849
0.000848723
0.000848463
0.000848211
0.000847975
0.000847744
0.000847528
0.000847316
0.000847115
0.000846919
0.00085178
0.000851363
0.000850969
0.000850594
0.000850239
0.000849901
0.00084958
0.000849275
0.000848984
0.000848707
0.000848443
0.000848191
0.000847951
0.000847721
0.000847502
0.000847293
0.000847093
0.000846901
0.000851779
0.000851362
0.000850967
0.000850591
0.000850234
0.000849895
0.000849572
0.000849265
0.000848973
0.000848694
0.000848428
0.000848175
0.000847933
0.000847701
0.00084748
0.000847269
0.000847067
0.000846874
0.000851779
0.000851362
0.000850965
0.000850588
0.000850231
0.00084989
0.000849567
0.000849259
0.000848965
0.000848685
0.000848418
0.000848163
0.00084792
0.000847687
0.000847465
0.000847252
0.000847049
0.000846854
0.000851779
0.000851362
0.000850965
0.000850588
0.00085023
0.000849889
0.000849565
0.000849256
0.000848962
0.000848681
0.000848414
0.000848158
0.000847914
0.00084768
0.000847457
0.000847243
0.000847039
0.000846844
0.000851779
0.000851362
0.000850966
0.000850589
0.000850231
0.000849891
0.000849567
0.000849259
0.000848965
0.000848685
0.000848417
0.000848162
0.000847917
0.000847684
0.00084746
0.000847246
0.000847041
0.000846845
0.000851779
0.000851363
0.000850967
0.000850592
0.000850235
0.000849897
0.000849573
0.000849267
0.000848972
0.000848694
0.000848424
0.000848169
0.00084792
0.000847683
0.000847451
0.000847231
0.000847013
0.000846806
0.000851778
0.000851366
0.000850968
0.000850599
0.00085024
0.000849907
0.00084958
0.000849274
0.000848964
0.000848671
0.000848365
0.000848072
0.000847756
0.000847456
0.000847123
0.000846811
0.000846457
0.000846136
0.000851773
0.000851376
0.000850971
0.000850615
0.000850241
0.000849889
0.000849478
0.000849054
0.000848529
0.000847978
0.000847301
0.000846605
0.000845767
0.000844939
0.000843955
0.000843029
0.000841918
0.00084094
0.000851768
0.000851415
0.000850964
0.000850548
0.000849861
0.000848966
0.00084761
0.000845976
0.000843905
0.000841636
0.000838955
0.000836214
0.000833117
0.000830114
0.000826763
0.00082368
0.000820184
0.000817178
0.000851859
0.00085138
0.000850196
0.000848243
0.00084447
0.000839354
0.000832765
0.000825658
0.000817962
0.000810011
0.000801618
0.000793628
0.000785332
0.000777707
0.000769744
0.000762701
0.000755124
0.000748795
0.000852108
0.000847667
0.000839902
0.000827146
0.000808707
0.000789646
0.000769975
0.000751413
0.000733305
0.000716895
0.000700934
0.000686781
0.00067283
0.000660671
0.000648379
0.000637942
0.000626954
0.000618021
0.000843241
0.000822506
0.000775185
0.000726459
0.000684894
0.000649852
0.000618461
0.000592019
0.000568382
0.000548312
0.000529689
0.000513991
0.000498752
0.000486017
0.000473203
0.000462709
0.000451624
0.000442806
0.000795685
0.000668241
0.000570627
0.000509905
0.000465605
0.000431183
0.000404146
0.000382481
0.0003642
0.00034907
0.000335942
0.000325062
0.000314508
0.000306237
0.000297961
0.000291369
0.000284283
0.000278933
0.000501314
0.000348356
0.000292674
0.00025918
0.000236322
0.000221177
0.000211621
0.000203855
0.000198564
0.000195076
0.000192221
0.000190368
0.000188583
0.000187438
0.000186166
0.000185472
0.000184555
0.000184142
7.27384e-05
7.02255e-05
6.79541e-05
6.56137e-05
6.33828e-05
6.12762e-05
5.94944e-05
5.79551e-05
5.67109e-05
5.57031e-05
5.49776e-05
5.44178e-05
5.41096e-05
5.38809e-05
5.38975e-05
5.39325e-05
5.40913e-05
5.43237e-05
4.90274e-07
1.08376e-05
1.92949e-05
2.72716e-05
3.569e-05
4.46459e-05
5.42128e-05
6.4344e-05
7.48717e-05
8.55902e-05
9.62862e-05
0.000106785
0.000116936
0.000126621
0.000135734
0.00014419
0.000151921
0.000158898
0.000165166
0.000170882
0.000176367
0.000181513
0.000186536
0.00019658
0.000208565
0.000223175
0.000237309
0.000250486
0.000255483
0.000258331
0.000258569
0.000253542
0.000248068
0.000240598
0.000239146
0.000210535
4.64167e-05
4.86232e-05
4.95051e-05
5.07487e-05
5.18463e-05
5.29975e-05
5.41202e-05
5.52503e-05
5.63725e-05
5.74929e-05
5.86098e-05
5.97232e-05
6.08342e-05
6.19416e-05
6.3047e-05
6.4149e-05
6.5249e-05
6.63459e-05
6.74406e-05
6.85322e-05
6.96213e-05
7.07072e-05
7.17903e-05
7.28697e-05
7.39458e-05
7.50178e-05
7.6086e-05
7.71493e-05
7.8208e-05
7.92613e-05
8.0309e-05
8.13504e-05
8.23854e-05
8.34131e-05
8.44335e-05
8.54456e-05
8.64493e-05
8.74436e-05
8.84284e-05
8.94027e-05
9.03663e-05
9.13184e-05
9.22585e-05
9.31859e-05
9.41e-05
9.50001e-05
9.58855e-05
9.67555e-05
9.76091e-05
9.84456e-05
9.92639e-05
0.000100063
0.000100842
0.000101599
0.000102332
0.000103042
0.000103725
0.000104384
0.000105023
0.000105645
0.000106243
0.000106817
0.000107369
0.000107896
0.000108398
0.000108876
0.000109327
0.000109752
0.000110151
0.000110521
0.000110864
0.000111177
0.000111462
0.000111717
0.000111941
0.000112135
0.000112297
0.000112428
0.000112527
0.000112593
0.000112627
0.000112629
0.0001126
0.00011254
0.000112425
0.000112294
0.000112127
0.000111913
0.000111672
0.000111414
0.000111125
0.000110792
0.00011043
0.000110035
0.00010961
0.000109155
0.00010867
0.000108157
0.000107617
0.00010705
0.000106455
0.000105837
0.000105197
0.000104538
0.000103861
0.000103169
0.000102462
0.000101743
0.000101015
0.000100278
9.95354e-05
9.87883e-05
9.80403e-05
9.72925e-05
9.65483e-05
9.58075e-05
9.50732e-05
9.43463e-05
9.36309e-05
9.29269e-05
9.22385e-05
9.15665e-05
9.09134e-05
9.02795e-05
8.96691e-05
8.90819e-05
8.85202e-05
8.79923e-05
8.75614e-05
8.76913e-05
8.7502e-05
8.72295e-05
8.702e-05
8.68519e-05
8.67114e-05
8.65894e-05
8.64814e-05
8.6406e-05
8.63529e-05
8.63612e-05
8.63235e-05
8.62266e-05
8.60156e-05
8.4775e-05
2.10409e-06
3.90493e-05
8.22713e-05
0.000112045
0.000131984
0.000147224
0.000160499
0.000173158
0.00018572
0.000198273
0.000210707
0.000222846
0.000234504
0.000245517
0.000255737
0.000265046
0.000273358
0.000280654
0.000287012
0.000292666
0.000298068
0.000303459
0.000308734
0.000314796
0.000321754
0.000329323
0.000336678
0.000340972
0.000343277
0.000342448
0.000337871
0.000330113
0.000320986
0.000310381
0.000311077
0.000287405
0.000269389
0.000278276
0.000285295
0.000292816
0.000300524
0.000308282
0.000316186
0.00032417
0.000332247
0.000340396
0.00034862
0.000356913
0.000365276
0.000373708
0.000382212
0.000390788
0.00039944
0.000408167
0.000416975
0.000425863
0.000434836
0.000443893
0.000453037
0.000462269
0.00047159
0.000481
0.000490501
0.00050009
0.00050977
0.000519537
0.000529393
0.000539333
0.000549358
0.000559463
0.000569649
0.000579909
0.000590244
0.000600647
0.000611117
0.000621649
0.000632239
0.000642882
0.000653577
0.000664315
0.000675097
0.000685915
0.000696769
0.000707652
0.000718563
0.000729494
0.000740441
0.000751395
0.000762344
0.000773265
0.000784123
0.000794851
0.000805334
0.000815389
0.000824714
0.000833841
0.000842859
0.000851764
0.000860545
0.000869197
0.000877707
0.000886068
0.000894267
0.000902295
0.000910141
0.000917794
0.000925242
0.000932475
0.000939481
0.000946249
0.000952766
0.000959023
0.000965006
0.000970706
0.000976111
0.000981211
0.000985994
0.000990451
0.000994573
0.000998357
0.00100183
0.00100513
0.00100797
0.00101018
0.0010119
0.00101365
0.00101514
0.00101611
0.00101671
0.00101694
0.00101681
0.00101634
0.00101551
0.00101435
0.00101286
0.00101105
0.00100895
0.00100656
0.00100389
0.00100096
0.00099779
0.000994396
0.000990803
0.000987032
0.000983107
0.000979046
0.000974877
0.000970617
0.000966299
0.000961938
0.000957562
0.000953185
0.000948835
0.000944532
0.000940305
0.00093617
0.000932157
0.000928283
0.000924571
0.000921032
0.000917689
0.000914544
0.000911607
0.00090888
0.000906343
0.000903803
0.000899095
0.000894588
0.000890362
0.000886245
0.000882157
0.000878104
0.000873988
0.000869703
0.000865262
0.000860913
0.000856044
0.000850369
0.000841759
0.000817393
4.18359e-06
6.11089e-05
0.000126507
0.000176412
0.000212859
0.000239766
0.00026068
0.000278116
0.000293639
0.000308101
0.000321881
0.000335082
0.000347666
0.000359532
0.000370562
0.000380651
0.000389725
0.000397763
0.000404822
0.000411042
0.000416629
0.000422207
0.000428932
0.000437191
0.000447046
0.0004582
0.000469724
0.000480877
0.000491007
0.000499691
0.000506939
0.000513159
0.000518991
0.000525087
0.000531679
0.000535828
0.000544719
0.000560065
0.000575564
0.00059127
0.000607167
0.000623203
0.000639391
0.000655711
0.000672163
0.000688741
0.000705447
0.000722278
0.000739239
0.000756331
0.000773558
0.000790924
0.000808433
0.000826088
0.000843891
0.000861846
0.000879954
0.000898217
0.000916636
0.000935212
0.000953944
0.000972832
0.000991873
0.00101107
0.00103041
0.0010499
0.00106953
0.00108929
0.00110919
0.00112922
0.00114936
0.00116961
0.00118998
0.00121043
0.00123098
0.00125161
0.0012723
0.00129306
0.00131387
0.00133472
0.00135561
0.00137651
0.00139743
0.00141834
0.00143924
0.00146011
0.00148092
0.00150166
0.0015223
0.00154278
0.00156306
0.00158307
0.0016027
0.00162188
0.0016406
0.00165908
0.00167732
0.00169533
0.00171307
0.00173053
0.0017477
0.00176455
0.00178105
0.0017972
0.00181296
0.00182833
0.00184326
0.00185775
0.00187177
0.0018853
0.00189831
0.00191079
0.0019227
0.00193404
0.00194477
0.00195489
0.00196436
0.00197317
0.00198132
0.0019888
0.00199562
0.0020018
0.00200745
0.00201205
0.00201544
0.00201856
0.00202122
0.00202298
0.00202396
0.0020242
0.00202371
0.00202251
0.00202059
0.002018
0.00201474
0.00201083
0.00200631
0.0020012
0.00199553
0.00198933
0.00198263
0.00197549
0.00196793
0.00196002
0.00195178
0.00194327
0.00193452
0.00192559
0.00191653
0.00190737
0.00189817
0.00188896
0.00187979
0.00187072
0.00186178
0.00185301
0.00184447
0.00183619
0.0018282
0.00182054
0.00181324
0.00180629
0.00179972
0.00179351
0.00178757
0.00178147
0.0017739
0.0017664
0.00175909
0.00175183
0.00174463
0.00173764
0.00173047
0.00172273
0.00171486
0.00170725
0.00169879
0.00168795
0.00167192
0.00163245
6.36406e-06
7.77816e-05
0.000159918
0.000224625
0.000273211
0.000309753
0.000338014
0.000360848
0.000380251
0.000397504
0.000413362
0.000428215
0.000442234
0.000455463
0.000467893
0.000479504
0.0004903
0.000500339
0.000509766
0.000518839
0.00052795
0.000537645
0.000548524
0.000560993
0.000575216
0.000591063
0.000608028
0.000625538
0.000643091
0.000660397
0.000677446
0.000694455
0.000711748
0.000729613
0.000746954
0.000764923
0.000784764
0.000806434
0.000828613
0.000851075
0.000873725
0.00089654
0.00091952
0.000942662
0.000965966
0.000989434
0.00101307
0.00103687
0.00106084
0.001085
0.00110933
0.00113385
0.00115857
0.00118349
0.0012086
0.00123392
0.00125945
0.00128517
0.00131111
0.00133724
0.00136358
0.00139012
0.00141686
0.00144378
0.00147089
0.00149818
0.00152564
0.00155327
0.00158105
0.00160898
0.00163705
0.00166524
0.00169355
0.00172196
0.00175045
0.00177903
0.00180767
0.00183635
0.00186507
0.00189381
0.00192254
0.00195127
0.00197996
0.0020086
0.00203716
0.00206562
0.00209396
0.00212214
0.00215013
0.00217788
0.00220535
0.00223247
0.0022592
0.00228548
0.00231138
0.00233696
0.00236222
0.00238714
0.00241169
0.00243585
0.00245959
0.00248289
0.00250572
0.00252805
0.00254985
0.0025711
0.00259177
0.00261183
0.00263125
0.00265
0.00266804
0.00268536
0.00270192
0.0027177
0.00273266
0.00274678
0.00276003
0.00277239
0.00278385
0.00279439
0.002804
0.00281267
0.00282063
0.00282749
0.00283266
0.00283708
0.0028409
0.00284356
0.00284516
0.00284572
0.00284526
0.0028438
0.00284135
0.00283794
0.00283359
0.00282833
0.0028222
0.00281523
0.00280746
0.00279894
0.00278971
0.00277983
0.00276936
0.00275836
0.00274689
0.002735
0.00272276
0.00271024
0.00269749
0.00268459
0.00267158
0.00265855
0.00264555
0.00263265
0.00261991
0.0026074
0.00259516
0.00258326
0.00257175
0.00256067
0.00255005
0.00253992
0.00253029
0.00252115
0.00251239
0.0025037
0.00249437
0.00248509
0.00247599
0.00246698
0.00245817
0.00244963
0.00244108
0.00243213
0.00242312
0.00241395
0.00240387
0.00239132
0.00237207
0.00233044
8.46838e-06
9.16607e-05
0.000187603
0.000264521
0.000323701
0.000368833
0.000403889
0.000431983
0.000455411
0.000475774
0.000494126
0.000511124
0.000527156
0.000542441
0.000557109
0.000571248
0.000584953
0.000598345
0.000611605
0.000624984
0.000638814
0.000653482
0.000669372
0.000686774
0.000705798
0.000726308
0.000748072
0.000770754
0.000794021
0.000817635
0.000841524
0.000865742
0.000890385
0.000915456
0.000940852
0.0009666
0.000993138
0.00102033
0.00104781
0.00107546
0.0011033
0.00113132
0.00115953
0.00118793
0.00121653
0.00124532
0.00127431
0.0013035
0.0013329
0.0013625
0.0013923
0.00142234
0.00145261
0.0014831
0.00151384
0.00154481
0.00157601
0.00160745
0.00163912
0.00167103
0.00170315
0.0017355
0.00176806
0.00180083
0.0018338
0.00186695
0.00190029
0.00193379
0.00196745
0.00200126
0.00203519
0.00206925
0.0021034
0.00213764
0.00217196
0.00220632
0.00224072
0.00227514
0.00230956
0.00234396
0.00237832
0.00241261
0.00244683
0.00248094
0.00251491
0.00254873
0.00258236
0.00261577
0.00264893
0.00268181
0.00271436
0.00274657
0.0027784
0.00280984
0.00284091
0.00287161
0.00290192
0.00293181
0.00296128
0.00299027
0.00301878
0.00304676
0.0030742
0.00310105
0.00312729
0.00315289
0.00317781
0.00320202
0.00322549
0.00324819
0.00327007
0.00329112
0.00331128
0.00333054
0.00334885
0.00336619
0.00338252
0.00339782
0.00341206
0.00342522
0.00343728
0.00344821
0.00345824
0.0034672
0.00347432
0.00348019
0.00348534
0.00348917
0.00349174
0.00349305
0.00349313
0.00349199
0.00348966
0.00348615
0.00348149
0.00347573
0.00346889
0.00346101
0.00345214
0.00344234
0.00343165
0.00342015
0.0034079
0.00339496
0.00338141
0.00336732
0.00335277
0.00333781
0.00332255
0.00330704
0.00329138
0.00327563
0.00325989
0.00324422
0.00322872
0.00321344
0.00319847
0.00318387
0.00316972
0.00315605
0.00314294
0.0031304
0.00311846
0.00310713
0.00309633
0.00308586
0.00307536
0.00306505
0.00305501
0.0030452
0.00303556
0.00302625
0.00301704
0.0030077
0.00299832
0.00298874
0.00297838
0.00296585
0.00294723
0.00290899
1.04326e-05
0.000103245
0.000210714
0.000298153
0.000366782
0.000419839
0.000461397
0.000494745
0.000522397
0.000546195
0.000567441
0.00058702
0.000605522
0.000623333
0.000640715
0.00065786
0.000674931
0.000692085
0.000709501
0.000727379
0.00074595
0.000765453
0.000786107
0.000808066
0.000831384
0.000855997
0.000881756
0.000908445
0.000935855
0.000963835
0.000992297
0.00102121
0.00105058
0.00108036
0.00111049
0.00114098
0.00117187
0.00120312
0.00123462
0.00126633
0.00129823
0.00133034
0.00136264
0.00139515
0.00142786
0.00146079
0.00149393
0.0015273
0.0015609
0.00159474
0.00162882
0.00166313
0.00169768
0.00173247
0.00176749
0.00180275
0.00183825
0.00187398
0.00190993
0.00194611
0.00198251
0.00201912
0.00205593
0.00209293
0.00213013
0.00216749
0.00220502
0.0022427
0.00228051
0.00231845
0.0023565
0.00239464
0.00243286
0.00247113
0.00250945
0.0025478
0.00258615
0.00262448
0.00266279
0.00270104
0.00273922
0.0027773
0.00281527
0.00285309
0.00289075
0.00292821
0.00296546
0.00300247
0.0030392
0.00307564
0.00311175
0.00314752
0.00318294
0.00321798
0.00325263
0.00328688
0.00332071
0.00335409
0.00338701
0.00341942
0.00345132
0.00348265
0.0035134
0.00354353
0.00357301
0.00360182
0.0036299
0.00365724
0.00368379
0.00370952
0.0037344
0.00375838
0.00378143
0.00380351
0.00382459
0.00384463
0.00386359
0.00388145
0.00389816
0.0039137
0.00392805
0.00394115
0.00395322
0.00396423
0.00397343
0.003981
0.0039877
0.003993
0.00399689
0.00399938
0.00400047
0.00400018
0.00399854
0.00399556
0.00399127
0.0039857
0.0039789
0.00397089
0.00396174
0.00395149
0.00394021
0.00392795
0.0039148
0.00390083
0.0038861
0.0038707
0.00385471
0.00383821
0.00382129
0.00380404
0.00378655
0.0037689
0.00375119
0.00373351
0.00371595
0.00369859
0.00368154
0.00366486
0.00364863
0.00363293
0.00361781
0.00360334
0.00358954
0.00357644
0.003564
0.00355212
0.00354059
0.00352947
0.00351878
0.0035085
0.00349861
0.00348912
0.00347991
0.00347085
0.00346189
0.00345287
0.00344335
0.00343213
0.00341589
0.00338429
1.22078e-05
0.000112788
0.000229845
0.000326438
0.000403536
0.000464019
0.000511875
0.000550506
0.000582571
0.00061009
0.000634553
0.00065703
0.000678279
0.000698829
0.000719053
0.000739225
0.000759558
0.000780231
0.000801403
0.000823231
0.000845863
0.000869434
0.000894056
0.000919796
0.000946664
0.000974612
0.00100354
0.00103333
0.00106384
0.00109496
0.00112661
0.00115875
0.00119134
0.00122433
0.00125767
0.00129136
0.00132535
0.00135962
0.00139414
0.00142887
0.00146381
0.00149895
0.00153429
0.00156984
0.00160559
0.00164156
0.00167775
0.00171416
0.00175079
0.00178765
0.00182474
0.00186207
0.00189962
0.0019374
0.00197541
0.00201364
0.0020521
0.00209079
0.00212968
0.00216879
0.0022081
0.00224761
0.00228731
0.00232719
0.00236723
0.00240744
0.00244778
0.00248826
0.00252886
0.00256956
0.00261035
0.00265122
0.00269214
0.0027331
0.00277408
0.00281507
0.00285605
0.00289699
0.00293787
0.00297869
0.00301941
0.00306002
0.00310049
0.00314081
0.00318094
0.00322087
0.00326057
0.00330003
0.00333921
0.0033781
0.00341667
0.00345491
0.00349279
0.00353031
0.00356744
0.00360417
0.00364047
0.00367632
0.0037117
0.00374658
0.00378093
0.00381472
0.00384793
0.00388053
0.00391247
0.00394374
0.00397429
0.0040041
0.00403312
0.00406132
0.00408866
0.00411511
0.00414062
0.00416515
0.00418867
0.00421113
0.0042325
0.00425273
0.00427179
0.00428964
0.00430625
0.00432157
0.00433573
0.00434882
0.00436019
0.00436984
0.00437832
0.00438538
0.00439094
0.00439497
0.00439749
0.00439849
0.004398
0.00439605
0.00439265
0.00438783
0.00438164
0.00437409
0.00436526
0.00435518
0.00434392
0.00433154
0.00431811
0.00430372
0.00428843
0.00427233
0.00425551
0.00423805
0.00422005
0.0042016
0.00418279
0.00416374
0.00414454
0.00412528
0.00410609
0.00408704
0.00406824
0.0040498
0.00403179
0.0040143
0.00399742
0.00398121
0.00396573
0.00395101
0.00393707
0.00392385
0.00391127
0.00389931
0.00388798
0.00387727
0.00386716
0.00385763
0.00384862
0.00384004
0.00383183
0.00382384
0.00381573
0.00380651
0.00379349
0.00376954
1.37588e-05
0.000120466
0.000245383
0.000350133
0.000434629
0.000502006
0.000555923
0.000599806
0.000636394
0.000667822
0.000695713
0.000721276
0.000745399
0.000768722
0.000791711
0.000814704
0.000837951
0.000861645
0.000885936
0.000910948
0.000936783
0.000963521
0.000991211
0.00101987
0.00104949
0.00108001
0.00111138
0.00114351
0.0011763
0.00120969
0.0012436
0.00127799
0.0013128
0.001348
0.00138356
0.00141943
0.00145559
0.001492
0.00152864
0.00156548
0.00160253
0.00163978
0.00167721
0.00171484
0.00175267
0.0017907
0.00182893
0.00186737
0.00190601
0.00194487
0.00198394
0.00202322
0.00206271
0.00210242
0.00214233
0.00218246
0.00222279
0.00226332
0.00230406
0.00234498
0.00238609
0.00242738
0.00246884
0.00251047
0.00255224
0.00259416
0.00263621
0.00267837
0.00272064
0.002763
0.00280544
0.00284794
0.00289049
0.00293307
0.00297566
0.00301825
0.00306082
0.00310335
0.00314583
0.00318823
0.00323053
0.00327272
0.00331477
0.00335667
0.0033984
0.00343992
0.00348123
0.00352231
0.00356313
0.00360367
0.00364391
0.00368384
0.00372344
0.00376269
0.00380158
0.00384007
0.00387816
0.00391582
0.00395302
0.00398974
0.00402596
0.00406166
0.00409679
0.00413133
0.00416526
0.00419854
0.00423114
0.00426302
0.00429415
0.00432449
0.00435401
0.00438266
0.0044104
0.0044372
0.004463
0.00448776
0.00451145
0.00453401
0.0045554
0.00457559
0.00459452
0.00461215
0.00462857
0.00464385
0.00465749
0.00466948
0.00468004
0.00468917
0.00469671
0.00470263
0.00470692
0.00470958
0.00471065
0.00471013
0.00470804
0.0047044
0.00469926
0.00469263
0.00468456
0.0046751
0.00466432
0.00465226
0.004639
0.00462462
0.0046092
0.00459281
0.00457554
0.0045575
0.00453876
0.00451944
0.00449964
0.00447946
0.00445902
0.00443842
0.00441777
0.0043972
0.0043768
0.00435669
0.00433698
0.00431776
0.00429913
0.00428119
0.004264
0.00424763
0.00423213
0.00421749
0.00420369
0.00419073
0.00417861
0.00416735
0.00415692
0.00414733
0.00413854
0.0041305
0.00412316
0.00411643
0.00411004
0.00410321
0.00409376
0.0040769
1.50646e-05
0.000126447
0.000257667
0.000369389
0.000460459
0.000534168
0.000593833
0.000642837
0.000683942
0.000719343
0.000750748
0.000779461
0.000806464
0.000832485
0.000858061
0.000883585
0.000909338
0.000935521
0.000962282
0.000989729
0.00101794
0.00104701
0.00107695
0.00110774
0.00113935
0.00117174
0.00120485
0.00123862
0.00127299
0.0013079
0.0013433
0.00137914
0.00141537
0.00145198
0.00148892
0.00152619
0.00156371
0.00160145
0.0016394
0.00167753
0.00171584
0.00175432
0.00179297
0.00183179
0.00187078
0.00190996
0.00194931
0.00198884
0.00202855
0.00206846
0.00210855
0.00214883
0.0021893
0.00222996
0.00227081
0.00231185
0.00235308
0.0023945
0.00243609
0.00247786
0.00251981
0.00256193
0.0026042
0.00264663
0.0026892
0.00273191
0.00277475
0.00281771
0.00286076
0.00290392
0.00294715
0.00299045
0.00303381
0.0030772
0.00312062
0.00316405
0.00320747
0.00325086
0.00329421
0.00333751
0.00338073
0.00342385
0.00346686
0.00350973
0.00355245
0.00359501
0.00363737
0.00367952
0.00372145
0.00376313
0.00380454
0.00384568
0.00388652
0.00392703
0.00396722
0.00400704
0.00404649
0.00408555
0.00412419
0.00416239
0.00420012
0.00423737
0.00427411
0.0043103
0.00434593
0.00438095
0.00441535
0.00444909
0.00448213
0.00451443
0.00454597
0.00457669
0.00460656
0.00463553
0.00466356
0.0046906
0.0047166
0.00474151
0.00476529
0.00478788
0.00480925
0.00482933
0.00484818
0.0048658
0.00488187
0.00489639
0.00490935
0.00492082
0.00493066
0.00493876
0.00494514
0.00494979
0.00495274
0.004954
0.00495357
0.00495148
0.00494774
0.00494238
0.00493544
0.00492697
0.004917
0.00490561
0.00489286
0.00487881
0.00486355
0.00484716
0.00482972
0.00481133
0.00479209
0.00477211
0.00475148
0.00473033
0.00470876
0.00468691
0.00466489
0.00464282
0.00462083
0.00459904
0.00457758
0.00455655
0.00453609
0.00451629
0.00449726
0.00447909
0.00446185
0.0044456
0.00443036
0.00441616
0.00440303
0.004391
0.00438007
0.00437028
0.00436161
0.00435406
0.00434761
0.00434222
0.00433769
0.0043334
0.0043276
0.00431676
1.61157e-05
0.000130881
0.000266972
0.000384508
0.000481336
0.000560771
0.000625786
0.000679672
0.000725162
0.000764469
0.000799345
0.000831154
0.00086094
0.00088949
0.000917395
0.00094515
0.00097303
0.00100123
0.0010299
0.00105912
0.00108892
0.0011195
0.00115085
0.00118294
0.00121576
0.00124927
0.00128342
0.00131816
0.00135345
0.00138922
0.00142544
0.00146207
0.00149907
0.0015364
0.00157404
0.00161196
0.00165003
0.00168833
0.00172681
0.00176543
0.00180418
0.00184306
0.00188207
0.00192121
0.00196049
0.00199991
0.00203949
0.00207922
0.0021191
0.00215914
0.00219935
0.00223973
0.00228027
0.00232099
0.00236189
0.00240296
0.0024442
0.00248563
0.00252723
0.00256901
0.00261096
0.00265308
0.00269537
0.00273782
0.00278043
0.00282319
0.00286609
0.00290913
0.0029523
0.00299558
0.00303897
0.00308246
0.00312603
0.00316967
0.00321337
0.00325711
0.00330088
0.00334466
0.00338843
0.00343218
0.0034759
0.00351955
0.00356313
0.00360661
0.00364998
0.00369322
0.00373631
0.00377923
0.00382196
0.00386449
0.0039068
0.00394886
0.00399066
0.00403219
0.00407342
0.00411434
0.00415492
0.00419515
0.00423501
0.00427448
0.00431353
0.00435215
0.00439031
0.00442798
0.00446515
0.00450178
0.00453784
0.00457331
0.00460815
0.00464233
0.0046758
0.00470854
0.00474049
0.00477161
0.00480186
0.00483118
0.00485952
0.00488684
0.00491307
0.00493817
0.00496208
0.00498475
0.00500619
0.00502632
0.00504501
0.00506222
0.00507787
0.00509195
0.00510439
0.00511495
0.00512368
0.00513061
0.00513575
0.00513909
0.00514064
0.0051404
0.00513838
0.00513461
0.00512911
0.00512192
0.00511307
0.00510263
0.00509065
0.00507719
0.00506234
0.00504618
0.00502878
0.00501024
0.00499066
0.00497016
0.00494883
0.00492679
0.00490418
0.00488112
0.00485773
0.00483416
0.00481053
0.004787
0.00476368
0.00474073
0.00471829
0.00469647
0.00467542
0.00465524
0.00463606
0.00461796
0.00460103
0.00458532
0.00457091
0.00455785
0.00454619
0.00453599
0.00452729
0.00452011
0.00451448
0.0045104
0.00450775
0.00450601
0.00450383
0.00449873
1.69142e-05
0.000133928
0.00027358
0.000395807
0.000497562
0.00058206
0.000651937
0.00071035
0.000759969
0.000802986
0.000841163
0.000875903
0.000908299
0.00093913
0.000968946
0.000998314
0.00102762
0.00105712
0.00108699
0.00111736
0.00114834
0.00118001
0.0012123
0.00124521
0.00127871
0.00131277
0.00134736
0.00138242
0.00141793
0.00145384
0.00149011
0.00152671
0.0015636
0.00160076
0.00163817
0.00167587
0.00171383
0.00175201
0.00179027
0.00182858
0.00186695
0.00190537
0.00194387
0.00198245
0.00202113
0.00205992
0.00209882
0.00213785
0.00217701
0.00221631
0.00225576
0.00229536
0.00233512
0.00237506
0.00241516
0.00245545
0.00249592
0.00253659
0.00257744
0.0026185
0.00265975
0.00270121
0.00274286
0.00278471
0.00282676
0.00286901
0.00291144
0.00295406
0.00299685
0.00303982
0.00308294
0.00312622
0.00316963
0.00321317
0.00325683
0.00330058
0.00334442
0.00338833
0.00343228
0.00347627
0.00352027
0.00356427
0.00360824
0.00365218
0.00369604
0.00373983
0.00378351
0.00382707
0.00387049
0.00391375
0.00395683
0.00399971
0.00404237
0.0040848
0.00412697
0.00416888
0.00421049
0.0042518
0.00429279
0.00433343
0.0043737
0.0044136
0.00445309
0.00449216
0.00453078
0.00456894
0.00460659
0.00464373
0.00468031
0.0047163
0.00475167
0.00478638
0.00482039
0.00485366
0.00488612
0.00491774
0.00494847
0.00497823
0.00500699
0.00503468
0.00506124
0.00508661
0.00511076
0.00513362
0.00515508
0.00517517
0.00519372
0.00521064
0.00522598
0.00523924
0.00525059
0.00526006
0.00526766
0.00527336
0.00527717
0.00527907
0.00527907
0.00527717
0.00527339
0.00526776
0.00526031
0.00525108
0.00524012
0.00522751
0.0052133
0.00519757
0.00518041
0.0051619
0.00514215
0.00512125
0.00509934
0.00507652
0.00505292
0.00502869
0.00500395
0.00497887
0.00495357
0.00492822
0.00490298
0.00487799
0.00485343
0.00482944
0.00480618
0.00478381
0.00476247
0.00474229
0.00472341
0.00470593
0.00468996
0.00467562
0.00466299
0.00465215
0.00464321
0.00463623
0.00463128
0.00462841
0.00462756
0.0046283
0.00462959
0.00462975
1.74728e-05
0.000135771
0.000277779
0.000403608
0.000509437
0.000598266
0.000672426
0.000734898
0.000788261
0.000834671
0.000875793
0.000912899
0.000947304
0.000979908
0.00101144
0.00104247
0.00107323
0.00110396
0.00113486
0.00116605
0.00119762
0.0012296
0.00126203
0.00129492
0.00132826
0.00136204
0.00139622
0.00143078
0.00146568
0.00150088
0.00153636
0.0015721
0.00160806
0.00164421
0.00168051
0.00171702
0.00175376
0.00179076
0.0018279
0.00186504
0.00190218
0.00193928
0.00197635
0.00201345
0.0020506
0.00208783
0.00212514
0.00216257
0.00220012
0.00223781
0.00227564
0.00231364
0.00235182
0.00239019
0.00242877
0.00246756
0.00250658
0.00254583
0.00258533
0.00262509
0.0026651
0.00270539
0.00274594
0.00278676
0.00282786