/*--------------------------------*- C++ -*----------------------------------*\
  =========                 |
  \\      /  F ield         | OpenFOAM: The Open Source CFD Toolbox
   \\    /   O peration     | Website:  https://openfoam.org
    \\  /    A nd           | Version:  11
     \\/     M anipulation  |
\*---------------------------------------------------------------------------*/
FoamFile
{
    format      ascii;
    class       volScalarField;
    location    "200";
    object      p;
}
// * * * * * * * * * * * * * * * * * * * * * * * * * * * * * * * * * * * * * //

dimensions      [0 2 -2 0 0 0 0];

internalField   nonuniform List<scalar> 
12225
(
-2.14315
-4.33173
-5.43169
-5.75231
-5.93355
-6.10255
-6.23408
-6.32922
-6.40583
-6.47323
-6.53324
-6.58813
-6.63792
-6.68428
-6.72743
-6.76271
-6.80624
-6.77324
-5.30659
-6.07503
-6.23545
-6.14317
-6.1306
-6.19843
-6.27596
-6.34169
-6.40131
-6.45875
-6.51338
-6.5643
-6.61219
-6.65724
-6.7004
-6.73788
-6.78121
-6.8085
-5.70773
-5.69272
-5.82003
-5.89835
-5.99321
-6.11335
-6.22055
-6.30539
-6.3772
-6.44256
-6.50268
-6.55761
-6.60879
-6.65648
-6.70221
-6.74361
-6.79085
-6.83161
-5.58579
-5.52888
-5.77043
-5.92871
-6.0304
-6.13657
-6.23424
-6.31427
-6.383
-6.44609
-6.50467
-6.5587
-6.60935
-6.65694
-6.70287
-6.74635
-6.79371
-6.841
-5.57545
-5.59988
-5.8279
-5.96941
-6.05298
-6.145
-6.23619
-6.31388
-6.38142
-6.44364
-6.50176
-6.55576
-6.60659
-6.65472
-6.70142
-6.74677
-6.79462
-6.84478
-5.63341
-5.68235
-5.85658
-5.98044
-6.06191
-6.14969
-6.2377
-6.31418
-6.38113
-6.44283
-6.50061
-6.55457
-6.60549
-6.65399
-6.70117
-6.74753
-6.7955
-6.84582
-5.69374
-5.73798
-5.87312
-5.98939
-6.07309
-6.15718
-6.24106
-6.31567
-6.38173
-6.44272
-6.49999
-6.55373
-6.60461
-6.65329
-6.70069
-6.74745
-6.79513
-6.84439
-5.74726
-5.7849
-5.89482
-6.00306
-6.08601
-6.16556
-6.24493
-6.31737
-6.38239
-6.44259
-6.49925
-6.5527
-6.60344
-6.65213
-6.69953
-6.74626
-6.79328
-6.84096
-5.79698
-5.8301
-5.92098
-6.01889
-6.09891
-6.17423
-6.24935
-6.31942
-6.38319
-6.44246
-6.49842
-6.55142
-6.60189
-6.6504
-6.69756
-6.74388
-6.78996
-6.83586
-5.84401
-5.87325
-5.94873
-6.03589
-6.11203
-6.18352
-6.25458
-6.32203
-6.3843
-6.44247
-6.49757
-6.54996
-6.59998
-6.64808
-6.69476
-6.74039
-6.78531
-6.82942
-5.8883
-5.91377
-5.97693
-6.05404
-6.12567
-6.19343
-6.2606
-6.32524
-6.38577
-6.44269
-6.49678
-6.54838
-6.59776
-6.64526
-6.69124
-6.73595
-6.77961
-6.82196
-5.92629
-5.94862
-6.00277
-6.07154
-6.1386
-6.20293
-6.2667
-6.32869
-6.38745
-6.44308
-6.49612
-6.54686
-6.59549
-6.64227
-6.68744
-6.73119
-6.77362
-6.81446
-5.96137
-5.98107
-6.02785
-6.08918
-6.15161
-6.21255
-6.27309
-6.33246
-6.38937
-6.44362
-6.49552
-6.54528
-6.59306
-6.639
-6.68328
-6.72599
-6.7672
-6.80663
-5.99811
-6.01529
-6.05526
-6.10922
-6.16649
-6.2236
-6.28066
-6.33709
-6.39181
-6.44437
-6.49486
-6.54341
-6.59007
-6.63494
-6.67809
-6.71957
-6.7594
-6.79735
-6.03527
-6.05005
-6.084
-6.13105
-6.18288
-6.23581
-6.28921
-6.34248
-6.39468
-6.44526
-6.49407
-6.54112
-6.58642
-6.62996
-6.67177
-6.71184
-6.75016
-6.78658
-6.07088
-6.0835
-6.1124
-6.15332
-6.19984
-6.24851
-6.29821
-6.34822
-6.39771
-6.44605
-6.49294
-6.53826
-6.58196
-6.62395
-6.66424
-6.70276
-6.73953
-6.77441
-6.10204
-6.11291
-6.13784
-6.17376
-6.21561
-6.2603
-6.30652
-6.35343
-6.40021
-6.44622
-6.49106
-6.53451
-6.57645
-6.61678
-6.65543
-6.69237
-6.72757
-6.76097
-6.12438
-6.13403
-6.15628
-6.18873
-6.22716
-6.26878
-6.31221
-6.35655
-6.401
-6.4449
-6.48781
-6.52947
-6.5697
-6.60839
-6.64545
-6.68085
-6.71457
-6.74658
-6.13102
-6.14017
-6.16138
-6.19252
-6.22961
-6.26988
-6.31192
-6.35486
-6.39792
-6.44044
-6.48198
-6.52227
-6.56113
-6.59847
-6.63421
-6.66833
-6.70081
-6.73169
-6.11477
-6.12455
-6.14714
-6.18022
-6.21922
-6.26091
-6.30386
-6.34737
-6.39073
-6.4333
-6.47464
-6.51456
-6.55293
-6.58967
-6.62475
-6.65817
-6.68993
-6.72011
-6.08785
-6.09864
-6.12391
-6.16093
-6.2037
-6.24821
-6.29329
-6.33852
-6.38315
-6.42649
-6.46826
-6.50836
-6.54674
-6.58335
-6.61821
-6.65133
-6.68278
-6.71261
-6.05258
-6.0644
-6.09375
-6.13734
-6.18561
-6.23359
-6.2814
-6.32912
-6.37567
-6.42025
-6.46277
-6.50333
-6.54194
-6.57862
-6.61341
-6.6464
-6.67766
-6.70728
-6.012
-6.02389
-6.05835
-6.11162
-6.16717
-6.21912
-6.27001
-6.32044
-6.36895
-6.41483
-6.45825
-6.49943
-6.53842
-6.57529
-6.61012
-6.64309
-6.67425
-6.70378
-5.96827
-5.97925
-6.02102
-6.08545
-6.14763
-6.2043
-6.25992
-6.31377
-6.36403
-6.41085
-6.45497
-6.49665
-6.53591
-6.57286
-6.60771
-6.64061
-6.67169
-6.70109
-5.92133
-5.92683
-5.98949
-6.0677
-6.12965
-6.1879
-6.24904
-6.30739
-6.35991
-6.40796
-6.45297
-6.49523
-6.53477
-6.57181
-6.60662
-6.63945
-6.67044
-6.6998
-5.87801
-5.84168
-5.95122
-6.0622
-6.12444
-6.17973
-6.24194
-6.30168
-6.3549
-6.40361
-6.44933
-6.49212
-6.53199
-6.56922
-6.60414
-6.63702
-6.66804
-6.6974
-5.89223
-5.73328
-5.8622
-6.01628
-6.10639
-6.17776
-6.24668
-6.30759
-6.36038
-6.40866
-6.45394
-6.4962
-6.53548
-6.57215
-6.60652
-6.6389
-6.66951
-6.69859
-6.01542
-5.83504
-5.84921
-5.92135
-6.00972
-6.10893
-6.19963
-6.2734
-6.3351
-6.39024
-6.44055
-6.48631
-6.52812
-6.56661
-6.6023
-6.63563
-6.66707
-6.69722
-5.72279
-6.31389
-6.40272
-6.27847
-6.22413
-6.25129
-6.29827
-6.34151
-6.38307
-6.42525
-6.46674
-6.50607
-6.54302
-6.57775
-6.61032
-6.64087
-6.66962
-6.69834
-2.73347
-4.49677
-5.50147
-5.80061
-5.94979
-6.09341
-6.20745
-6.28841
-6.35263
-6.4095
-6.46075
-6.50679
-6.54846
-6.58669
-6.62199
-6.65413
-6.68298
-6.70677
-7.60566
-7.60571
-7.60623
-7.60735
-7.60893
-7.61093
-7.61333
-7.61611
-7.61929
-7.62289
-7.62694
-7.63147
-7.63653
-7.64218
-7.64846
-7.65545
-7.66321
-7.6718
-7.68128
-7.69182
-7.70336
-7.7156
-7.72828
-7.74137
-7.75421
-7.7663
-7.77925
-7.79524
-7.81471
-7.83634
-7.85922
-7.88345
-7.90818
-7.93184
-7.95371
-7.97406
-7.99402
-8.0164
-8.04115
-8.06672
-8.09311
-8.12014
-8.14764
-8.17553
-8.20369
-8.23206
-8.26053
-8.28904
-8.31749
-8.34583
-8.37394
-8.40178
-8.42921
-8.45618
-8.48256
-8.50827
-8.53318
-8.5572
-8.58016
-8.60199
-8.6225
-8.6416
-8.65908
-8.67484
-8.68866
-8.70043
-8.70992
-8.717
-8.72142
-8.72305
-8.72162
-8.71699
-8.70889
-8.69716
-8.68154
-8.66185
-8.63783
-8.60929
-8.57595
-8.53765
-8.4941
-8.44513
-8.39047
-8.32994
-8.2633
-8.19036
-8.11088
-8.0247
-7.93164
-7.83164
-7.7247
-7.61083
-7.48984
-7.3612
-7.22454
-7.07986
-6.9273
-6.76688
-6.59863
-6.42258
-6.23876
-6.04725
-5.84812
-5.64151
-5.42757
-5.20648
-4.97846
-4.74375
-4.50262
-4.25538
-4.00235
-3.7439
-3.48039
-3.21224
-2.93986
-2.66371
-2.38426
-2.10196
-1.81731
-1.53074
-1.24276
-0.953859
-0.664536
-0.375296
-0.0866121
0.201078
0.487343
0.771756
1.05392
1.33346
1.61002
1.88327
2.15293
2.41873
2.68046
2.93792
3.19099
3.43957
3.68363
3.92311
4.15797
4.38824
4.61402
4.83544
5.05266
5.26586
5.47526
5.68111
5.88368
6.08328
6.28023
6.47488
6.66761
6.85881
7.04888
7.23828
7.42742
7.61678
7.8068
7.99797
8.19072
8.38552
8.58279
8.78294
8.98637
9.19355
9.40464
9.61937
9.83753
10.0593
10.2846
10.5135
10.7454
10.9799
11.2164
11.4544
11.6938
11.9343
12.1883
12.4448
-7.60339
-7.60394
-7.60475
-7.60564
-7.60647
-7.60736
-7.60856
-7.6102
-7.61234
-7.615
-7.6182
-7.62195
-7.62626
-7.63116
-7.63667
-7.64282
-7.64964
-7.65715
-7.66536
-7.67421
-7.68349
-7.69318
-7.70367
-7.71499
-7.72701
-7.74107
-7.75779
-7.77542
-7.79211
-7.80812
-7.82457
-7.84132
-7.85886
-7.8791
-7.90297
-7.93039
-7.96045
-7.98985
-8.01687
-8.04372
-8.07072
-8.098
-8.12554
-8.15334
-8.18134
-8.2095
-8.23773
-8.266
-8.2942
-8.32229
-8.35018
-8.3778
-8.40504
-8.43184
-8.45808
-8.48367
-8.5085
-8.53246
-8.55541
-8.57726
-8.59784
-8.61703
-8.63467
-8.65061
-8.66469
-8.67674
-8.68658
-8.69404
-8.69892
-8.70103
-8.70017
-8.69615
-8.68874
-8.67774
-8.66293
-8.6441
-8.62102
-8.59347
-8.56121
-8.52405
-8.48173
-8.43405
-8.38078
-8.32173
-8.25667
-8.18539
-8.1077
-8.0234
-7.9323
-7.83426
-7.72911
-7.61663
-7.49656
-7.36888
-7.23369
-7.09092
-6.94042
-6.78216
-6.6161
-6.44225
-6.26065
-6.07136
-5.87445
-5.67005
-5.4583
-5.23937
-5.01347
-4.78084
-4.54173
-4.29643
-4.04528
-3.78861
-3.5268
-3.26024
-2.98935
-2.71457
-2.43636
-2.15519
-1.87152
-1.58582
-1.29857
-1.01026
-0.721406
-0.432483
-0.143985
0.143655
0.43
0.714628
0.99713
1.27713
1.55427
1.82822
2.09867
2.36537
2.62808
2.8866
3.14079
3.39057
3.63584
3.87657
4.1127
4.34425
4.5713
4.79398
5.01241
5.2268
5.43734
5.64427
5.84786
6.0484
6.2462
6.44161
6.635
6.82675
7.01727
7.20698
7.39632
7.58574
7.77569
7.96664
8.15903
8.35334
8.55004
8.7495
8.95206
9.15813
9.36784
9.58101
9.79759
10.0177
10.2415
10.4688
10.6992
10.9324
11.1679
11.4052
11.645
11.8864
12.1435
12.3926
-7.59733
-7.59899
-7.60131
-7.6031
-7.60418
-7.60502
-7.60597
-7.60726
-7.60901
-7.61128
-7.61409
-7.61748
-7.62145
-7.62602
-7.63122
-7.63707
-7.64359
-7.65079
-7.65866
-7.66719
-7.67627
-7.68589
-7.69616
-7.70731
-7.71967
-7.73392
-7.75029
-7.76811
-7.78632
-7.80452
-7.82277
-7.84098
-7.85939
-7.87884
-7.90007
-7.92334
-7.94838
-7.97413
-7.99992
-8.02602
-8.05247
-8.07923
-8.10626
-8.13353
-8.16098
-8.18857
-8.21625
-8.24396
-8.27163
-8.2992
-8.32659
-8.35373
-8.38052
-8.4069
-8.43276
-8.458
-8.48252
-8.50621
-8.52894
-8.5506
-8.57105
-8.59015
-8.60775
-8.62371
-8.63786
-8.65004
-8.66007
-8.66778
-8.67297
-8.67547
-8.67506
-8.67155
-8.66473
-8.6544
-8.64034
-8.62233
-8.60015
-8.57358
-8.54239
-8.50637
-8.46529
-8.41893
-8.36707
-8.3095
-8.24601
-8.17641
-8.10048
-8.01803
-7.92889
-7.8329
-7.72989
-7.61961
-7.50184
-7.3765
-7.24365
-7.10322
-6.95516
-6.79938
-6.63586
-6.46459
-6.28559
-6.09891
-5.90462
-5.70284
-5.49369
-5.27735
-5.05401
-4.82389
-4.58724
-4.34435
-4.09553
-3.84111
-3.58145
-3.31695
-3.04801
-2.77506
-2.49855
-2.21894
-1.9367
-1.65228
-1.36618
-1.0789
-0.790912
-0.502694
-0.214735
0.0725045
0.358591
0.643115
0.925658
1.20585
1.48331
1.75772
2.02876
2.29616
2.55967
2.8191
3.07427
3.3251
3.57149
3.81336
4.05068
4.28343
4.5117
4.73558
4.9552
5.17072
5.38235
5.59029
5.79482
5.99619
6.19474
6.39077
6.58466
6.77675
6.96747
7.15721
7.34642
7.53551
7.72496
7.91522
8.10675
8.29997
8.4954
8.69347
8.89454
9.09893
9.30681
9.51815
9.73297
9.95139
10.1735
10.3991
10.628
10.8598
11.0944
11.3314
11.5718
11.8141
12.0738
12.309
-7.58815
-7.59106
-7.5955
-7.59891
-7.60104
-7.60255
-7.60389
-7.60534
-7.60707
-7.6092
-7.61183
-7.61498
-7.6187
-7.623
-7.6279
-7.63344
-7.63962
-7.64647
-7.65399
-7.66219
-7.67106
-7.68062
-7.69092
-7.70211
-7.71436
-7.72799
-7.74311
-7.75959
-7.77708
-7.79535
-7.81427
-7.83378
-7.85387
-7.87467
-7.89635
-7.919
-7.94254
-7.96677
-7.99153
-8.0168
-8.04253
-8.06866
-8.0951
-8.12181
-8.14873
-8.17582
-8.20302
-8.23026
-8.25749
-8.28464
-8.31165
-8.33843
-8.3649
-8.39099
-8.41659
-8.44161
-8.46595
-8.48949
-8.51212
-8.53372
-8.55415
-8.57327
-8.59095
-8.60702
-8.62134
-8.63373
-8.64402
-8.65204
-8.6576
-8.66051
-8.66057
-8.65759
-8.65135
-8.64166
-8.62829
-8.61104
-8.58967
-8.56397
-8.53372
-8.49869
-8.45866
-8.41341
-8.36272
-8.30638
-8.24417
-8.17589
-8.10134
-8.02031
-7.93263
-7.83813
-7.73664
-7.62796
-7.5119
-7.38838
-7.25736
-7.11879
-6.97259
-6.81871
-6.65711
-6.48778
-6.31074
-6.12602
-5.9337
-5.73387
-5.52667
-5.31225
-5.09081
-4.86254
-4.62771
-4.38658
-4.13946
-3.88668
-3.62859
-3.36558
-3.09803
-2.8264
-2.5511
-2.27261
-1.99137
-1.70785
-1.42254
-1.13595
-0.848552
-0.56081
-0.273186
0.0138297
0.299801
0.584321
0.866979
1.14739
1.42519
1.70003
1.9716
2.23963
2.50385
2.76407
3.02012
3.27187
3.51923
3.76211
4.00046
4.23428
4.46364
4.6886
4.9093
5.12588
5.33853
5.54746
5.75292
5.95515
6.15449
6.35121
6.54569
6.73827
6.92934
7.11929
7.30858
7.49758
7.68675
7.87655
8.06745
8.25987
8.45427
8.65103
8.85051
9.05306
9.2589
9.46814
9.68088
9.89724
10.1172
10.3408
10.5678
10.7979
11.0309
11.2666
11.5062
11.7471
12.0043
12.2249
-7.57826
-7.58247
-7.58917
-7.59443
-7.59788
-7.60038
-7.60246
-7.60442
-7.60649
-7.60884
-7.61158
-7.6148
-7.61854
-7.62285
-7.62776
-7.6333
-7.63948
-7.64634
-7.65389
-7.66214
-7.67114
-7.68091
-7.69153
-7.70307
-7.71563
-7.72932
-7.74417
-7.76013
-7.77707
-7.79491
-7.81358
-7.83305
-7.85333
-7.87439
-7.89623
-7.91881
-7.94204
-7.96583
-7.99011
-8.01489
-8.0401
-8.0657
-8.09165
-8.11788
-8.14436
-8.17102
-8.19781
-8.22467
-8.25155
-8.27838
-8.30508
-8.33159
-8.35782
-8.38369
-8.40911
-8.43398
-8.4582
-8.48167
-8.50425
-8.52584
-8.54629
-8.56548
-8.58325
-8.59946
-8.61395
-8.62656
-8.6371
-8.64541
-8.6513
-8.65459
-8.65506
-8.65253
-8.6468
-8.63764
-8.62485
-8.60822
-8.58751
-8.56252
-8.53301
-8.49877
-8.45957
-8.41518
-8.3654
-8.31
-8.24877
-8.1815
-8.10798
-8.02803
-7.94144
-7.84805
-7.7477
-7.6402
-7.5254
-7.40319
-7.27349
-7.13623
-6.99134
-6.83876
-6.67846
-6.51043
-6.33467
-6.15124
-5.96018
-5.7616
-5.55563
-5.34241
-5.12212
-4.89498
-4.66124
-4.42115
-4.17502
-3.92317
-3.66596
-3.40376
-3.13697
-2.86602
-2.59135
-2.3134
-2.03264
-1.74953
-1.46456
-1.17824
-0.891065
-0.603482
-0.315937
-0.0289248
0.257112
0.541755
0.824613
1.10528
1.38339
1.6586
1.9306
2.19908
2.46382
2.72458
2.98122
3.23357
3.48155
3.72505
3.96402
4.19848
4.42846
4.65406
4.87536
5.09254
5.30574
5.5152
5.72113
5.92382
6.12352
6.32057
6.51529
6.70806
6.89921
7.08916
7.27831
7.46709
7.65592
7.84526
8.03551
8.22713
8.42054
8.61614
8.81428
9.0153
9.21944
9.42691
9.63786
9.85245
10.0707
10.2925
10.5178
10.7463
10.9779
11.2122
11.4501
11.6886
11.9412
12.1485
-7.56963
-7.57505
-7.58372
-7.59067
-7.59545
-7.59903
-7.60199
-7.60465
-7.60727
-7.61006
-7.61315
-7.61666
-7.62065
-7.6252
-7.63033
-7.63609
-7.64251
-7.64962
-7.65745
-7.66602
-7.67536
-7.68551
-7.69651
-7.70844
-7.72133
-7.73525
-7.75018
-7.7661
-7.78293
-7.80062
-7.81912
-7.83841
-7.85846
-7.87928
-7.90082
-7.92306
-7.94591
-7.96932
-7.99323
-8.01762
-8.04243
-8.06763
-8.09318
-8.11904
-8.14515
-8.17147
-8.19794
-8.22451
-8.25112
-8.2777
-8.30419
-8.33051
-8.35658
-8.38233
-8.40765
-8.43245
-8.45664
-8.48009
-8.5027
-8.52434
-8.54488
-8.56418
-8.5821
-8.59849
-8.61319
-8.62604
-8.63685
-8.64546
-8.65168
-8.65532
-8.65619
-8.65408
-8.64879
-8.64012
-8.62783
-8.61173
-8.59159
-8.56719
-8.5383
-8.5047
-8.46616
-8.42247
-8.37341
-8.31875
-8.25827
-8.19178
-8.11906
-8.03992
-7.95416
-7.8616
-7.7621
-7.65547
-7.54157
-7.42027
-7.29147
-7.15511
-7.0111
-6.85939
-6.69995
-6.53275
-6.3578
-6.17515
-5.98486
-5.78702
-5.58176
-5.36921
-5.14956
-4.92302
-4.68983
-4.45025
-4.20459
-3.95316
-3.69631
-3.43444
-3.16792
-2.8972
-2.6227
-2.34488
-2.06419
-1.78112
-1.49616
-1.2098
-0.922557
-0.634881
-0.347218
-0.0600367
0.226199
0.511078
0.794192
1.07514
1.35356
1.62909
1.90141
2.17024
2.43532
2.69643
2.95341
3.2061
3.45438
3.69817
3.9374
4.1721
4.4023
4.62809
4.84954
5.06683
5.2801
5.48958
5.69549
5.89811
6.09768
6.29455
6.48901
6.68145
6.87221
7.0617
7.25031
7.43847
7.62658
7.81511
8.00448
8.19512
8.38746
8.5819
8.7788
8.97848
9.18121
9.38723
9.59676
9.80993
10.0268
10.2473
10.4714
10.6987
10.9292
11.1622
11.3985
11.6343
11.8823
12.0783
-7.56366
-7.57006
-7.58022
-7.58854
-7.5945
-7.5991
-7.60294
-7.60636
-7.60962
-7.61296
-7.61653
-7.62045
-7.62483
-7.62973
-7.63521
-7.64132
-7.64808
-7.65555
-7.66374
-7.67269
-7.68242
-7.69296
-7.70434
-7.7166
-7.72976
-7.74384
-7.75886
-7.77478
-7.79157
-7.80918
-7.82758
-7.84674
-7.86662
-7.88721
-7.90849
-7.93041
-7.95294
-7.97602
-7.99961
-8.02367
-8.04817
-8.07306
-8.09832
-8.12389
-8.14974
-8.17581
-8.20206
-8.22843
-8.25486
-8.28129
-8.30766
-8.33388
-8.35989
-8.38559
-8.4109
-8.43572
-8.45995
-8.48347
-8.50617
-8.52793
-8.54862
-8.56809
-8.58621
-8.60282
-8.61776
-8.63087
-8.64197
-8.65089
-8.65744
-8.66143
-8.66267
-8.66095
-8.65606
-8.64781
-8.63597
-8.62033
-8.60066
-8.57675
-8.54836
-8.51528
-8.47728
-8.43413
-8.38562
-8.33152
-8.27162
-8.20571
-8.13357
-8.05502
-7.96985
-7.87789
-7.77898
-7.67295
-7.55964
-7.43894
-7.31074
-7.17494
-7.03148
-6.8803
-6.72135
-6.55462
-6.38012
-6.19789
-6.00798
-5.8105
-5.60555
-5.39328
-5.17388
-4.94755
-4.71452
-4.47506
-4.22948
-3.97809
-3.72125
-3.45934
-3.19275
-2.92192
-2.64727
-2.36927
-2.08837
-1.80508
-1.51987
-1.23326
-0.945741
-0.657792
-0.369864
-0.0824008
0.204133
0.489321
0.772741
1.05401
1.33272
1.60855
1.88115
2.15024
2.41556
2.67689
2.93406
3.1869
3.43531
3.67916
3.91843
4.15311
4.38327
4.60894
4.83026
5.04734
5.26037
5.46952
5.67507
5.87722
6.0763
6.27258
6.46641
6.65813
6.84812
7.03674
7.22444
7.4116
7.59868
7.7861
7.97431
8.16374
8.35483
8.54797
8.74355
8.94189
9.14329
9.348
9.55626
9.76823
9.98397
10.2034
10.4265
10.653
10.8825
11.1145
11.3493
11.5825
11.8265
12.013
-7.5611
-7.56818
-7.5793
-7.58861
-7.5955
-7.60097
-7.6056
-7.60973
-7.61363
-7.61753
-7.62161
-7.62601
-7.63083
-7.63614
-7.64202
-7.64851
-7.65565
-7.66349
-7.67204
-7.68135
-7.69143
-7.70231
-7.714
-7.72653
-7.7399
-7.75414
-7.76922
-7.78515
-7.80189
-7.81943
-7.83772
-7.85675
-7.87649
-7.89691
-7.91797
-7.93967
-7.96195
-7.98478
-8.00813
-8.03195
-8.05622
-8.08091
-8.10596
-8.13135
-8.15703
-8.18296
-8.20908
-8.23535
-8.2617
-8.28809
-8.31442
-8.34065
-8.36667
-8.39242
-8.4178
-8.44272
-8.46706
-8.49072
-8.51358
-8.53552
-8.5564
-8.5761
-8.59445
-8.61131
-8.62651
-8.6399
-8.6513
-8.66052
-8.66739
-8.67172
-8.67329
-8.67193
-8.66741
-8.65952
-8.64806
-8.6328
-8.61352
-8.59
-8.56201
-8.52933
-8.49174
-8.449
-8.40089
-8.3472
-8.28771
-8.2222
-8.15046
-8.0723
-7.98752
-7.89594
-7.7974
-7.69173
-7.57878
-7.45842
-7.33053
-7.19504
-7.05184
-6.9009
-6.74216
-6.57561
-6.40126
-6.21914
-6.02932
-5.83188
-5.62694
-5.41465
-5.19519
-4.96875
-4.73559
-4.49596
-4.25016
-3.99853
-3.74141
-3.47919
-3.21227
-2.94108
-2.66605
-2.38765
-2.10635
-1.82264
-1.53703
-1.25001
-0.962087
-0.673752
-0.385467
-0.0976618
0.189219
0.47474
0.758486
1.04005
1.31905
1.59512
1.86793
2.13721
2.40268
2.66413
2.92136
3.17422
3.42258
3.66635
3.9055
4.14002
4.36995
4.59534
4.81631
5.03298
5.24555
5.45417
5.65912
5.86061
6.05896
6.25443
6.44739
6.63816
6.82714
7.01469
7.20125
7.38722
7.57304
7.75916
7.94603
8.13408
8.32377
8.5155
8.70966
8.90661
9.10665
9.31007
9.51711
9.72795
9.94265
10.1612
10.3834
10.609
10.8377
11.0687
11.3021
11.5329
11.7736
11.9527
-7.56219
-7.56963
-7.5812
-7.5911
-7.59863
-7.60476
-7.61002
-7.61475
-7.61921
-7.62363
-7.62819
-7.63304
-7.63827
-7.64398
-7.65023
-7.65708
-7.66457
-7.67274
-7.68161
-7.69122
-7.70158
-7.71272
-7.72464
-7.73737
-7.7509
-7.76524
-7.78038
-7.79632
-7.81303
-7.83051
-7.84871
-7.86763
-7.88724
-7.90752
-7.92843
-7.94996
-7.97208
-7.99474
-8.01793
-8.04161
-8.06574
-8.0903
-8.11525
-8.14055
-8.16615
-8.19203
-8.21813
-8.24439
-8.27076
-8.29718
-8.32357
-8.34988
-8.37601
-8.40188
-8.4274
-8.45247
-8.47699
-8.50085
-8.52392
-8.54608
-8.5672
-8.58714
-8.60575
-8.62288
-8.63836
-8.65203
-8.66371
-8.67323
-8.6804
-8.68503
-8.68691
-8.68584
-8.68163
-8.67405
-8.66289
-8.64793
-8.62896
-8.60573
-8.57804
-8.54565
-8.50834
-8.46587
-8.41804
-8.36461
-8.30537
-8.2401
-8.1686
-8.09067
-8.00608
-7.9147
-7.81634
-7.71083
-7.59802
-7.47778
-7.34999
-7.21457
-7.07141
-6.92048
-6.76171
-6.5951
-6.42066
-6.23842
-6.04843
-5.85079
-5.64562
-5.43306
-5.21329
-4.98651
-4.75297
-4.51294
-4.26671
-4.01461
-3.757
-3.49427
-3.22683
-2.95509
-2.67951
-2.40056
-2.11871
-1.83448
-1.54835
-1.26084
-0.972441
-0.683664
-0.394984
-0.106817
0.180406
0.466241
0.750283
1.0321
1.31131
1.58754
1.86048
2.12983
2.39535
2.6568
2.91396
3.1667
3.41486
3.65841
3.89726
4.13144
4.36094
4.58588
4.80631
5.02241
5.23429
5.44221
5.64636
5.84702
6.04444
6.23895
6.43087
6.62056
6.80838
6.99474
7.18003
7.3647
7.54917
7.73391
7.91935
8.10597
8.29421
8.4845
8.67724
8.8728
9.07152
9.2737
9.4796
9.68939
9.90315
10.1208
10.3423
10.5672
10.7952
11.0253
11.2573
11.486
11.7239
11.8971
-7.56677
-7.57426
-7.58584
-7.59593
-7.60381
-7.61036
-7.61607
-7.62125
-7.62614
-7.63098
-7.63594
-7.64116
-7.64674
-7.65278
-7.65934
-7.66648
-7.67424
-7.68266
-7.69178
-7.70161
-7.71217
-7.72349
-7.73557
-7.74842
-7.76205
-7.77646
-7.79163
-7.80757
-7.82425
-7.84168
-7.85982
-7.87866
-7.89818
-7.91836
-7.93918
-7.96062
-7.98264
-8.00522
-8.02832
-8.05193
-8.07601
-8.10054
-8.12546
-8.15076
-8.17639
-8.20231
-8.22846
-8.2548
-8.28127
-8.3078
-8.33433
-8.36078
-8.38708
-8.41314
-8.43885
-8.46414
-8.48888
-8.51297
-8.53628
-8.55869
-8.58006
-8.60025
-8.61912
-8.63651
-8.65225
-8.66619
-8.67813
-8.68791
-8.69533
-8.7002
-8.70233
-8.7015
-8.69752
-8.69017
-8.67923
-8.66448
-8.6457
-8.62267
-8.59516
-8.56295
-8.52579
-8.48348
-8.43579
-8.38248
-8.32335
-8.25819
-8.18677
-8.10889
-8.02437
-7.933
-7.83465
-7.72913
-7.61629
-7.49598
-7.36811
-7.23257
-7.08927
-6.93815
-6.77917
-6.61231
-6.43759
-6.25502
-6.06469
-5.86666
-5.66106
-5.44805
-5.22778
-5.00048
-4.76639
-4.52578
-4.27894
-4.02622
-3.76798
-3.50459
-3.23649
-2.96408
-2.68784
-2.40824
-2.12577
-1.84093
-1.55424
-1.26619
-0.977292
-0.688065
-0.398987
-0.110472
0.177051
0.463157
0.747435
1.02946
1.30881
1.58513
1.8581
2.12743
2.39286
2.65416
2.91111
3.16356
3.41139
3.65452
3.89291
4.12654
4.35545
4.57971
4.79942
5.01472
5.22576
5.43277
5.63595
5.8356
6.03195
6.22535
6.4161
6.60458
6.79115
6.9762
7.16016
7.34345
7.52652
7.70982
7.89383
8.07899
8.26578
8.45464
8.64599
8.84021
9.03768
9.23869
9.44352
9.65235
9.86528
10.0822
10.303
10.5273
10.7546
10.9838
11.2146
11.4414
11.6771
11.8458
-7.57443
-7.58172
-7.5929
-7.60283
-7.61078
-7.61751
-7.62346
-7.62891
-7.63409
-7.63921
-7.64445
-7.64993
-7.65576
-7.66203
-7.66881
-7.67615
-7.6841
-7.69269
-7.70196
-7.71192
-7.72261
-7.73403
-7.74619
-7.7591
-7.77277
-7.7872
-7.80238
-7.81831
-7.83497
-7.85236
-7.87046
-7.88926
-7.90873
-7.92887
-7.94965
-7.97105
-7.99305
-8.01561
-8.03872
-8.06234
-8.08645
-8.11102
-8.136
-8.16138
-8.18711
-8.21314
-8.23942
-8.26591
-8.29253
-8.31924
-8.34596
-8.37262
-8.39913
-8.4254
-8.45135
-8.47687
-8.50185
-8.52618
-8.54973
-8.57238
-8.59399
-8.61442
-8.63352
-8.65113
-8.66709
-8.68124
-8.69338
-8.70335
-8.71095
-8.716
-8.71828
-8.71761
-8.71377
-8.70654
-8.69572
-8.68107
-8.66238
-8.63943
-8.61199
-8.57982
-8.54271
-8.50042
-8.45273
-8.39942
-8.34027
-8.27506
-8.20359
-8.12564
-8.04101
-7.94954
-7.85106
-7.74538
-7.63236
-7.51185
-7.38374
-7.24793
-7.10433
-6.95288
-6.79354
-6.62629
-6.45114
-6.26811
-6.07728
-5.87873
-5.67257
-5.45896
-5.23808
-5.01013
-4.77537
-4.53407
-4.28652
-4.03308
-3.7741
-3.50998
-3.24113
-2.968
-2.69104
-2.41074
-2.12761
-1.84216
-1.55488
-1.26629
-0.976897
-0.687235
-0.397768
-0.108928
0.178854
0.465172
0.749613
1.03175
1.31115
1.58746
1.86034
2.12951
2.39471
2.65569
2.91225
3.16423
3.41153
3.65404
3.89176
4.12464
4.35276
4.57614
4.79493
5.00923
5.21925
5.42516
5.62723
5.82568
6.02083
6.21296
6.40243
6.58957
6.77478
6.95845
7.141
7.32286
7.50449
7.68635
7.86892
8.05265
8.23804
8.42552
8.61555
8.80853
9.00484
9.2048
9.40869
9.6167
9.8289
10.0452
10.2655
10.4893
10.716
10.9445
11.1742
11.3994
11.6332
11.7987
-7.58457
-7.59145
-7.60193
-7.6114
-7.61916
-7.62584
-7.63183
-7.63736
-7.64266
-7.64792
-7.6533
-7.65891
-7.66487
-7.67126
-7.67814
-7.68557
-7.6936
-7.70226
-7.71159
-7.7216
-7.73232
-7.74377
-7.75596
-7.76889
-7.78256
-7.79699
-7.81216
-7.82808
-7.84473
-7.86211
-7.8802
-7.89899
-7.91846
-7.9386
-7.95939
-7.98081
-8.00283
-8.02544
-8.04861
-8.07231
-8.09652
-8.1212
-8.14632
-8.17184
-8.19773
-8.22393
-8.25039
-8.27706
-8.30389
-8.33081
-8.35774
-8.38462
-8.41135
-8.43785
-8.46402
-8.48977
-8.51496
-8.5395
-8.56326
-8.58611
-8.6079
-8.62851
-8.64777
-8.66553
-8.68163
-8.69589
-8.70815
-8.71821
-8.72589
-8.731
-8.73334
-8.7327
-8.72888
-8.72166
-8.71083
-8.69616
-8.67744
-8.65444
-8.62694
-8.59469
-8.55749
-8.5151
-8.4673
-8.41386
-8.35456
-8.28919
-8.21754
-8.1394
-8.05456
-7.96286
-7.86412
-7.75817
-7.64485
-7.52402
-7.39556
-7.25938
-7.11538
-6.9635
-6.80369
-6.63594
-6.46027
-6.27669
-6.08527
-5.8861
-5.6793
-5.46503
-5.24345
-5.01479
-4.7793
-4.53724
-4.28895
-4.03474
-3.77499
-3.5101
-3.24048
-2.9666
-2.68891
-2.40791
-2.12412
-1.83804
-1.55018
-1.26106
-0.971213
-0.681145
-0.391329
-0.102225
0.185737
0.472158
0.756647
1.03876
1.31807
1.59421
1.86685
2.13569
2.40047
2.66094
2.91692
3.16824
3.41481
3.65653
3.89338
4.12534
4.35245
4.57478
4.79245
5.0056
5.2144
5.41907
5.61984
5.81697
6.01076
6.20152
6.38957
6.57529
6.75905
6.94126
7.12234
7.30274
7.48291
7.66332
7.84445
8.02678
8.2108
8.39698
8.58577
8.7776
8.97284
9.17187
9.37493
9.58224
9.79385
10.0097
10.2295
10.4529
10.6792
10.907
11.1359
11.3598
11.5921
11.7553
-7.59657
-7.60287
-7.61243
-7.62121
-7.62855
-7.63496
-7.64078
-7.64622
-7.65146
-7.65669
-7.66204
-7.66764
-7.67359
-7.67996
-7.68682
-7.69424
-7.70224
-7.71088
-7.72018
-7.73018
-7.74088
-7.75231
-7.76447
-7.77738
-7.79105
-7.80546
-7.82063
-7.83654
-7.85319
-7.87058
-7.88868
-7.90749
-7.92698
-7.94715
-7.96797
-7.98945
-8.01154
-8.03425
-8.05753
-8.08137
-8.10573
-8.13057
-8.15587
-8.18157
-8.20764
-8.23403
-8.26068
-8.28756
-8.31458
-8.3417
-8.36883
-8.3959
-8.42282
-8.44951
-8.47585
-8.50175
-8.52709
-8.55176
-8.57564
-8.59858
-8.62046
-8.64113
-8.66044
-8.67823
-8.69434
-8.7086
-8.72083
-8.73085
-8.73848
-8.74352
-8.74577
-8.74503
-8.74109
-8.73374
-8.72277
-8.70795
-8.68907
-8.66589
-8.63819
-8.60576
-8.56835
-8.52574
-8.4777
-8.42402
-8.36447
-8.29884
-8.22691
-8.14847
-8.06333
-7.97131
-7.87223
-7.76593
-7.65223
-7.53101
-7.40213
-7.26551
-7.12105
-6.96868
-6.80837
-6.64009
-6.46385
-6.27969
-6.08766
-5.88785
-5.68039
-5.46542
-5.24314
-5.01375
-4.77751
-4.53469
-4.28563
-4.03064
-3.77012
-3.50445
-3.23408
-2.95944
-2.68104
-2.39937
-2.11495
-1.82829
-1.53992
-1.25035
-0.960132
-0.669743
-0.379691
-0.0904539
0.197545
0.483915
0.768286
1.05021
1.32926
1.60504
1.87724
2.14556
2.40971
2.66949
2.92467
3.17515
3.42078
3.66151
3.89728
4.12812
4.35404
4.57514
4.79151
5.00333
5.21075
5.41402
5.61335
5.80903
6.00133
6.1906
6.37715
6.56136
6.74361
6.92431
7.1039
7.28281
7.46152
7.6405
7.82023
8.00122
8.18396
8.36892
8.55658
8.74738
8.94171
9.13993
9.34232
9.54907
9.76025
9.97575
10.1953
10.4184
10.6444
10.8717
11.0999
11.3227
11.5538
11.7156
-7.60979
-7.61542
-7.6239
-7.63182
-7.63856
-7.64451
-7.64996
-7.6551
-7.66009
-7.66511
-7.67027
-7.6757
-7.68149
-7.68772
-7.69445
-7.70174
-7.70964
-7.71818
-7.72739
-7.73731
-7.74794
-7.75931
-7.77142
-7.78429
-7.79792
-7.81231
-7.82745
-7.84334
-7.85999
-7.87737
-7.89548
-7.91432
-7.93385
-7.95407
-7.97497
-7.99653
-8.01874
-8.04158
-8.065
-8.089
-8.11352
-8.13853
-8.164
-8.18987
-8.2161
-8.24264
-8.26945
-8.29647
-8.32363
-8.35088
-8.37812
-8.4053
-8.43231
-8.45906
-8.48545
-8.51139
-8.53674
-8.5614
-8.58524
-8.60813
-8.62994
-8.65051
-8.6697
-8.68736
-8.70331
-8.71739
-8.72943
-8.73925
-8.74666
-8.75147
-8.75347
-8.75248
-8.74828
-8.74067
-8.72942
-8.71432
-8.69515
-8.67168
-8.64369
-8.61096
-8.57325
-8.53033
-8.48199
-8.42799
-8.36812
-8.30216
-8.2299
-8.15113
-8.06565
-7.97326
-7.87382
-7.76713
-7.65304
-7.5314
-7.4021
-7.26502
-7.12009
-6.96723
-6.80641
-6.6376
-6.4608
-6.27605
-6.08342
-5.88298
-5.67487
-5.45923
-5.23626
-5.00617
-4.7692
-4.52566
-4.27585
-4.02013
-3.75888
-3.49249
-3.22142
-2.94612
-2.66709
-2.38484
-2.09989
-1.81276
-1.52399
-1.2341
-0.94362
-0.653048
-0.362922
-0.073719
0.214139
0.500278
0.78433
1.06587
1.34445
1.61968
1.89123
2.1588
2.42212
2.68097
2.93517
3.18457
3.42907
3.6686
3.90311
4.13262
4.35717
4.57685
4.79176
5.00208
5.20799
5.40971
5.60748
5.80159
5.99233
6.18001
6.36499
6.54763
6.72833
6.9075
7.08559
7.26302
7.4403
7.61788
7.79629
7.976
8.15754
8.34139
8.52804
8.71793
8.91148
9.10903
9.3109
9.51724
9.72811
9.94341
10.1628
10.3858
10.6115
10.8386
11.0662
11.2882
11.5182
11.6794
-7.62368
-7.6286
-7.63594
-7.64287
-7.64883
-7.65413
-7.65901
-7.66365
-7.6682
-7.67281
-7.6776
-7.68271
-7.6882
-7.69416
-7.70065
-7.70773
-7.71544
-7.72381
-7.73287
-7.74265
-7.75316
-7.76442
-7.77643
-7.78922
-7.80278
-7.81711
-7.8322
-7.84807
-7.86469
-7.88207
-7.9002
-7.91906
-7.93864
-7.95893
-7.97991
-8.00157
-8.02388
-8.04682
-8.07035
-8.09445
-8.11907
-8.14418
-8.16972
-8.19566
-8.22194
-8.24853
-8.27536
-8.30239
-8.32954
-8.35676
-8.38397
-8.41107
-8.43799
-8.46463
-8.49088
-8.51665
-8.54181
-8.56626
-8.58987
-8.6125
-8.63403
-8.65431
-8.67318
-8.69051
-8.70613
-8.71986
-8.73154
-8.74099
-8.74803
-8.75245
-8.75408
-8.7527
-8.74812
-8.74013
-8.7285
-8.71302
-8.69348
-8.66964
-8.64129
-8.60819
-8.57012
-8.52685
-8.47815
-8.4238
-8.36359
-8.29728
-8.2247
-8.14557
-8.05975
-7.96701
-7.86721
-7.76015
-7.64568
-7.52365
-7.39395
-7.25645
-7.11109
-6.95778
-6.7965
-6.6272
-6.4499
-6.26463
-6.07145
-5.87045
-5.66176
-5.44553
-5.22194
-4.99123
-4.75364
-4.50946
-4.25902
-4.00268
-3.7408
-3.47382
-3.20217
-2.92634
-2.64682
-2.36415
-2.07882
-1.7914
-1.50239
-1.21234
-0.921767
-0.631217
-0.341221
-0.0522583
0.235253
0.520945
0.804454
1.08538
1.36326
1.6377
1.90837
2.17495
2.43721
2.69492
2.94791
3.19603
3.43919
3.67731
3.91038
4.13838
4.36139
4.57948
4.7928
5.00148
5.20575
5.40581
5.60193
5.79438
5.98348
6.16953
6.3529
6.53396
6.7131
6.89076
7.06736
7.24337
7.41926
7.59554
7.77269
7.95125
8.1317
8.31457
8.50035
8.68949
8.8824
9.07946
9.28094
9.48703
9.69775
9.91299
10.1324
10.3553
10.581
10.8078
11.035
11.2564
11.4856
11.6468
-7.63839
-7.64259
-7.64878
-7.65464
-7.65966
-7.66408
-7.66814
-7.67202
-7.67587
-7.67984
-7.68406
-7.68864
-7.69365
-7.69919
-7.7053
-7.71204
-7.71944
-7.72753
-7.73635
-7.7459
-7.75621
-7.76729
-7.77914
-7.79178
-7.8052
-7.81941
-7.8344
-7.85018
-7.86673
-7.88405
-7.90212
-7.92095
-7.9405
-7.96078
-7.98176
-8.00341
-8.0257
-8.0486
-8.07208
-8.09612
-8.12065
-8.14566
-8.17108
-8.19689
-8.22302
-8.24943
-8.27606
-8.30287
-8.32978
-8.35674
-8.38365
-8.41045
-8.43702
-8.46329
-8.48914
-8.51449
-8.53921
-8.56321
-8.58634
-8.60848
-8.62951
-8.64928
-8.66764
-8.68445
-8.69954
-8.71276
-8.72392
-8.73285
-8.73938
-8.7433
-8.74443
-8.74258
-8.73752
-8.72907
-8.71699
-8.70108
-8.68112
-8.65687
-8.62814
-8.59464
-8.55622
-8.51258
-8.46356
-8.40889
-8.34836
-8.28176
-8.20885
-8.12944
-8.0433
-7.95027
-7.85016
-7.7428
-7.62802
-7.50568
-7.37565
-7.23783
-7.09212
-6.93847
-6.77682
-6.60715
-6.42946
-6.24379
-6.05019
-5.84876
-5.63963
-5.42294
-5.1989
-4.96773
-4.72967
-4.48503
-4.23413
-3.97734
-3.71503
-3.44764
-3.17563
-2.89948
-2.6197
-2.33681
-2.05135
-1.76384
-1.47481
-1.18482
-0.894411
-0.604138
-0.314522
-0.026047
0.260869
0.545856
0.828564
1.1086
1.38552
1.65891
1.92843
2.1938
2.45474
2.71107
2.96262
3.20925
3.45087
3.6874
3.91883