/*--------------------------------*- C++ -*----------------------------------*\
  =========                 |
  \\      /  F ield         | OpenFOAM: The Open Source CFD Toolbox
   \\    /   O peration     | Website:  https://openfoam.org
    \\  /    A nd           | Version:  11
     \\/     M anipulation  |
\*---------------------------------------------------------------------------*/
FoamFile
{
    format      ascii;
    class       surfaceScalarField;
    location    "200";
    object      phi;
}
// * * * * * * * * * * * * * * * * * * * * * * * * * * * * * * * * * * * * * //

dimensions      [0 3 -1 0 0 0 0];

internalField   nonuniform List<scalar> 
24170
(
3.129e-06
5.94012e-08
3.04662e-06
8.23813e-08
2.97353e-06
7.30949e-08
2.90489e-06
6.86366e-08
2.84056e-06
6.43328e-08
2.78323e-06
5.73292e-08
2.7339e-06
4.93293e-08
2.69194e-06
4.19579e-08
2.65626e-06
3.56812e-08
2.6258e-06
3.04551e-08
2.59959e-06
2.62104e-08
2.57678e-06
2.28054e-08
2.55671e-06
2.00726e-08
2.5388e-06
1.79148e-08
2.52264e-06
1.61518e-08
2.50718e-06
1.5462e-08
2.49286e-06
1.43201e-08
2.00808e-08
2.47278e-06
3.45306e-06
2.35864e-08
3.457e-06
7.84406e-08
3.45054e-06
7.95567e-08
3.43908e-06
8.00945e-08
3.4243e-06
7.91128e-08
3.40705e-06
7.4581e-08
3.38783e-06
6.85513e-08
3.3673e-06
6.24884e-08
3.34614e-06
5.68339e-08
3.32495e-06
5.16443e-08
3.30421e-06
4.69516e-08
3.28419e-06
4.28253e-08
3.26509e-06
3.91749e-08
3.24693e-06
3.60667e-08
3.22982e-06
3.32668e-08
3.21369e-06
3.15886e-08
3.19887e-06
2.91439e-08
3.146e-08
3.18749e-06
3.66816e-06
1.79438e-08
3.6792e-06
6.74006e-08
3.68542e-06
7.33307e-08
3.68946e-06
7.6062e-08
3.69105e-06
7.75172e-08
3.69008e-06
7.55497e-08
3.68694e-06
7.16913e-08
3.6821e-06
6.73336e-08
3.67594e-06
6.29908e-08
3.66879e-06
5.87902e-08
3.66094e-06
5.4808e-08
3.65262e-06
5.11458e-08
3.64402e-06
4.77754e-08
3.63529e-06
4.47915e-08
3.6265e-06
4.20525e-08
3.61804e-06
4.00534e-08
3.60932e-06
3.78665e-08
3.76567e-08
3.60312e-06
3.92585e-06
1.74837e-08
3.93592e-06
5.73312e-08
3.94257e-06
6.66808e-08
3.94811e-06
7.05229e-08
3.95252e-06
7.3105e-08
3.95546e-06
7.26044e-08
3.95713e-06
7.00251e-08
3.95776e-06
6.67044e-08
3.95754e-06
6.32098e-08
3.95662e-06
5.97107e-08
3.95513e-06
5.62967e-08
3.95319e-06
5.30809e-08
3.9509e-06
5.00665e-08
3.94835e-06
4.73382e-08
3.94558e-06
4.4822e-08
3.94286e-06
4.27718e-08
3.93994e-06
4.07923e-08
3.94991e-08
3.93809e-06
4.2082e-06
1.64119e-08
4.21598e-06
4.95474e-08
4.22168e-06
6.09845e-08
4.22678e-06
6.54199e-08
4.23153e-06
6.83592e-08
4.23549e-06
6.86362e-08
4.23866e-06
6.68611e-08
4.24113e-06
6.42328e-08
4.24301e-06
6.13248e-08
4.2444e-06
5.83247e-08
4.24537e-06
5.53302e-08
4.24599e-06
5.2452e-08
4.24634e-06
4.97186e-08
4.24648e-06
4.71957e-08
4.24646e-06
4.48508e-08
4.24643e-06
4.28016e-08
4.24635e-06
4.08678e-08
3.91419e-08
4.24671e-06
4.51071e-06
1.47898e-08
4.51688e-06
4.33755e-08
4.52213e-06
5.57374e-08
4.52694e-06
6.06051e-08
4.53165e-06
6.36493e-08
4.5359e-06
6.43908e-08
4.53957e-06
6.31916e-08
4.54272e-06
6.10769e-08
4.54544e-06
5.86087e-08
4.54777e-06
5.5987e-08
4.54978e-06
5.33192e-08
4.55153e-06
5.07084e-08
4.55305e-06
4.82002e-08
4.5544e-06
4.58427e-08
4.55562e-06
4.36259e-08
4.55683e-06
4.1594e-08
4.55805e-06
3.96517e-08
3.77395e-08
4.55945e-06
4.83433e-06
1.31802e-08
4.83963e-06
3.80792e-08
4.84475e-06
5.06145e-08
4.84945e-06
5.59039e-08
4.85408e-06
5.90192e-08
4.85839e-06
6.00769e-08
4.86226e-06
5.93237e-08
4.86572e-06
5.76173e-08
4.86883e-06
5.55001e-08
4.87163e-06
5.31834e-08
4.87417e-06
5.07826e-08
4.87648e-06
4.83939e-08
4.87861e-06
4.6072e-08
4.8806e-06
4.38531e-08
4.88249e-06
4.17377e-08
4.88435e-06
3.97336e-08
4.88622e-06
3.77813e-08
3.57974e-08
4.88816e-06
5.18105e-06
1.17144e-08
5.18575e-06
3.33744e-08
5.19075e-06
4.56143e-08
5.1954e-06
5.12549e-08
5.19998e-06
5.44363e-08
5.20434e-06
5.57213e-08
5.20833e-06
5.53321e-08
5.21197e-06
5.39721e-08
5.21532e-06
5.21538e-08
5.2184e-06
5.00989e-08
5.22126e-06
4.79279e-08
5.22392e-06
4.57327e-08
5.22642e-06
4.35712e-08
5.2288e-06
4.14745e-08
5.23109e-06
3.94466e-08
5.23334e-06
3.74815e-08
5.23558e-06
3.55369e-08
3.35466e-08
5.23784e-06
5.55269e-06
1.03597e-08
5.55689e-06
2.91797e-08
5.56169e-06
4.08094e-08
5.5663e-06
4.66491e-08
5.57086e-06
4.98752e-08
5.57526e-06
5.13202e-08
5.57936e-06
5.1232e-08
5.58315e-06
5.01772e-08
5.58668e-06
4.86255e-08
5.58997e-06
4.6806e-08
5.59306e-06
4.48422e-08
5.59597e-06
4.28234e-08
5.59873e-06
4.08078e-08
5.60138e-06
3.8825e-08
5.60395e-06
3.68815e-08
5.60646e-06
3.49687e-08
5.60894e-06
3.3056e-08
3.11033e-08
5.61138e-06
5.95104e-06
9.09731e-09
5.95478e-06
2.54339e-08
5.95935e-06
3.62386e-08
5.96391e-06
4.20966e-08
5.96845e-06
4.53314e-08
5.97289e-06
4.68796e-08
5.97709e-06
4.70334e-08
5.98102e-06
4.62468e-08
5.98471e-06
4.49369e-08
5.98818e-06
4.33339e-08
5.99146e-06
4.1563e-08
5.99457e-06
3.97106e-08
5.99754e-06
3.78344e-08
6.0004e-06
3.59645e-08
6.00317e-06
3.411e-08
6.00588e-06
3.22654e-08
6.00852e-06
3.04104e-08
2.85275e-08
6.0111e-06
6.37798e-06
7.92685e-09
6.38134e-06
2.20725e-08
6.38567e-06
3.19125e-08
6.39015e-06
3.7614e-08
6.39467e-06
4.08108e-08
6.39914e-06
4.24117e-08
6.40342e-06
4.27488e-08
6.40748e-06
4.21914e-08
6.41132e-06
4.10998e-08
6.41495e-06
3.96972e-08
6.41841e-06
3.81084e-08
6.4217e-06
3.64168e-08
6.42486e-06
3.46788e-08
6.42789e-06
3.29257e-08
6.43083e-06
3.11699e-08
6.43369e-06
2.9411e-08
6.43646e-06
2.7638e-08
2.58506e-08
6.43914e-06
5.74176e-06
7.00126e-09
5.74434e-06
1.94908e-08
5.74781e-06
2.8445e-08
5.75153e-06
3.38886e-08
5.75533e-06
3.70111e-08
5.75912e-06
3.86229e-08
5.7628e-06
3.90702e-08
5.76632e-06
3.86743e-08
5.76967e-06
3.77491e-08
5.77286e-06
3.65042e-08
5.77591e-06
3.50622e-08
5.77882e-06
3.35038e-08
5.78161e-06
3.18839e-08
5.7843e-06
3.02348e-08
5.7869e-06
2.85718e-08
5.78941e-06
2.68992e-08
5.79184e-06
2.52125e-08
2.35228e-08
5.79417e-06
6.99914e-06
6.01827e-09
7.00187e-06
1.67588e-08
7.00563e-06
2.46825e-08
7.0098e-06
2.9724e-08
7.01411e-06
3.26937e-08
7.01846e-06
3.42719e-08
7.02273e-06
3.48e-08
7.02686e-06
3.4553e-08
7.03081e-06
3.37952e-08
7.0346e-06
3.27169e-08
7.03822e-06
3.14354e-08
7.0417e-06
3.00274e-08
7.04504e-06
2.85456e-08
7.04825e-06
2.70229e-08
7.05134e-06
2.54777e-08
7.05432e-06
2.39192e-08
7.05719e-06
2.23486e-08
2.07858e-08
7.05992e-06
8.53188e-06
4.98558e-09
8.53473e-06
1.39037e-08
8.53876e-06
2.06524e-08
8.54336e-06
2.51273e-08
8.54821e-06
2.78399e-08
8.55317e-06
2.9321e-08
8.55808e-06
2.98836e-08
8.56288e-06
2.97589e-08
8.56751e-06
2.91605e-08
8.57197e-06
2.82529e-08
8.57627e-06
2.71438e-08
8.58039e-06
2.59043e-08
8.58435e-06
2.45835e-08
8.58816e-06
2.32145e-08
8.59182e-06
2.18179e-08
8.59533e-06
2.04068e-08
8.59869e-06
1.89873e-08
1.75843e-08
8.60189e-06
1.04003e-05
3.91216e-09
1.04033e-05
1.09449e-08
1.04075e-05
1.63763e-08
1.04125e-05
2.01067e-08
1.0418e-05
2.24329e-08
1.04235e-05
2.37327e-08
1.04292e-05
2.42668e-08
1.04347e-05
2.42225e-08
1.04401e-05
2.37644e-08
1.04453e-05
2.30251e-08
1.04504e-05
2.20977e-08
1.04552e-05
2.10449e-08
1.04599e-05
1.9911e-08
1.04644e-05
1.8727e-08
1.04687e-05
1.75145e-08
1.04728e-05
1.62889e-08
1.04767e-05
1.50591e-08
1.38518e-08
1.04805e-05
1.26779e-05
2.8029e-09
1.2681e-05
7.87635e-09
1.26855e-05
1.18524e-08
1.26909e-05
1.46564e-08
1.26969e-05
1.64449e-08
1.27032e-05
1.7458e-08
1.27096e-05
1.78853e-08
1.27159e-05
1.78663e-08
1.27222e-05
1.75182e-08
1.27283e-05
1.69384e-08
1.27342e-05
1.61993e-08
1.27399e-05
1.53517e-08
1.27453e-05
1.44322e-08
1.27506e-05
1.34679e-08
1.27556e-05
1.24785e-08
1.27604e-05
1.14795e-08
1.2765e-05
1.04801e-08
9.50645e-09
1.27694e-05
1.54543e-05
1.6468e-09
1.54576e-05
4.65192e-09
1.54624e-05
7.02277e-09
1.54683e-05
8.71588e-09
1.5475e-05
9.80175e-09
1.5482e-05
1.04061e-08
1.54893e-05
1.06383e-08
1.54966e-05
1.05823e-08
1.55038e-05
1.03083e-08
1.55108e-05
9.87584e-09
1.55177e-05
9.33124e-09
1.55243e-05
8.70877e-09
1.55307e-05
8.03405e-09
1.55369e-05
7.32677e-09
1.55428e-05
6.60224e-09
1.55484e-05
5.873e-09
1.55537e-05
5.14674e-09
4.44612e-09
1.55588e-05
1.88389e-05
4.03715e-10
1.88424e-05
1.14659e-09
1.88477e-05
1.71315e-09
1.88543e-05
2.09382e-09
1.88618e-05
2.3052e-09
1.88698e-05
2.37558e-09
1.88782e-05
2.32672e-09
1.88866e-05
2.17829e-09
1.88949e-05
1.95028e-09
1.89031e-05
1.66086e-09
1.89111e-05
1.32513e-09
1.89189e-05
9.55607e-10
1.89264e-05
5.62973e-10
1.89335e-05
1.56373e-10
1.89404e-05
-2.56336e-10
1.89469e-05
-6.68011e-10
1.89532e-05
-1.07451e-09
-1.45853e-09
1.89591e-05
2.29648e-05
-1.02785e-09
2.29688e-05
-2.92889e-09
2.29751e-05
-4.49615e-09
2.29828e-05
-5.68641e-09
2.29917e-05
-6.52291e-09
2.30011e-05
-7.09154e-09
2.30109e-05
-7.47982e-09
2.30209e-05
-7.74232e-09
2.30307e-05
-7.91599e-09
2.30404e-05
-8.03196e-09
2.30499e-05
-8.11431e-09
2.3059e-05
-8.17738e-09
2.30678e-05
-8.22943e-09
2.30762e-05
-8.27454e-09
2.30843e-05
-8.31506e-09
2.30919e-05
-8.3508e-09
2.30993e-05
-8.38268e-09
-8.39979e-09
2.31062e-05
1.68118e-05
-2.15186e-09
1.6815e-05
-6.10279e-09
1.68198e-05
-9.33029e-09
1.68258e-05
-1.16895e-08
1.68326e-05
-1.32419e-08
1.68397e-05
-1.4215e-08
1.6847e-05
-1.47963e-08
1.68543e-05
-1.50899e-08
1.68616e-05
-1.51746e-08
1.68687e-05
-1.51226e-08
1.68756e-05
-1.49866e-08
1.68822e-05
-1.47998e-08
1.68885e-05
-1.45827e-08
1.68946e-05
-1.43494e-08
1.69004e-05
-1.41083e-08
1.69059e-05
-1.38642e-08
1.69112e-05
-1.36202e-08
-1.337e-08
1.69161e-05
1.46356e-05
-3.23136e-09
1.46387e-05
-9.19264e-09
1.46435e-05
-1.40486e-08
1.46492e-05
-1.74385e-08
1.46555e-05
-1.95354e-08
1.46621e-05
-2.07887e-08
1.46687e-05
-2.14687e-08
1.46754e-05
-2.17113e-08
1.46818e-05
-2.16477e-08
1.46881e-05
-2.13944e-08
1.46941e-05
-2.10272e-08
1.46999e-05
-2.05905e-08
1.47055e-05
-2.01149e-08
1.47107e-05
-1.96211e-08
1.47158e-05
-1.91227e-08
1.47205e-05
-1.8627e-08
1.4725e-05
-1.81389e-08
-1.76543e-08
1.47293e-05
1.27411e-05
-4.24218e-09
1.27443e-05
-1.2323e-08
1.27491e-05
-1.88828e-08
1.27548e-05
-2.30893e-08
1.27607e-05
-2.55219e-08
1.27669e-05
-2.69541e-08
1.27731e-05
-2.7649e-08
1.27791e-05
-2.77557e-08
1.2785e-05
-2.74815e-08
1.27906e-05
-2.69917e-08
1.27959e-05
-2.6376e-08
1.2801e-05
-2.5686e-08
1.28058e-05
-2.49586e-08
1.28104e-05
-2.42195e-08
1.28148e-05
-2.34842e-08
1.28189e-05
-2.27607e-08
1.28229e-05
-2.20542e-08
-2.13616e-08
1.28266e-05
1.10918e-05
-5.08685e-09
1.1095e-05
-1.55473e-08
1.11001e-05
-2.40117e-08
1.11058e-05
-2.87177e-08
1.11115e-05
-3.12621e-08
1.11173e-05
-3.27735e-08
1.1123e-05
-3.33834e-08
1.11286e-05
-3.32741e-08
1.11338e-05
-3.2748e-08
1.11388e-05
-3.20025e-08
1.11436e-05
-3.11295e-08
1.11481e-05
-3.01855e-08
1.11523e-05
-2.92138e-08
1.11564e-05
-2.82429e-08
1.11602e-05
-2.72879e-08
1.11638e-05
-2.6357e-08
1.11672e-05
-2.5454e-08
-2.45769e-08
1.11704e-05
9.65582e-06
-5.69468e-09
9.65925e-06
-1.89732e-08
9.6646e-06
-2.93594e-08
9.6701e-06
-3.42175e-08
9.67566e-06
-3.68238e-08
9.68122e-06
-3.83365e-08
9.68656e-06
-3.87203e-08
9.69159e-06
-3.83063e-08
9.69634e-06
-3.74973e-08
9.70082e-06
-3.64876e-08
9.70505e-06
-3.53561e-08
9.70902e-06
-3.41622e-08
9.71276e-06
-3.29537e-08
9.71628e-06
-3.17598e-08
9.71959e-06
-3.05957e-08
9.7227e-06
-2.94683e-08
9.72562e-06
-2.838e-08
-2.73269e-08
9.72837e-06
8.40532e-06
-5.66577e-09
8.40964e-06
-2.32895e-08
8.41488e-06
-3.45962e-08
8.41991e-06
-3.92473e-08
8.42527e-06
-4.21921e-08
8.43068e-06
-4.37471e-08
8.43577e-06
-4.38087e-08
8.44048e-06
-4.30152e-08
8.44485e-06
-4.18694e-08
8.44891e-06
-4.05476e-08
8.45268e-06
-3.91194e-08
8.45616e-06
-3.76471e-08
8.45939e-06
-3.61803e-08
8.46237e-06
-3.47467e-08
8.46514e-06
-3.33613e-08
8.4677e-06
-3.20305e-08
8.47008e-06
-3.07561e-08
-2.95346e-08
8.47228e-06
7.31455e-06
-2.92834e-09
7.32119e-06
-2.99339e-08
7.32674e-06
-4.01485e-08
7.3317e-06
-4.42003e-08
7.3371e-06
-4.75915e-08
7.34242e-06
-4.90698e-08
7.3473e-06
-4.86885e-08
7.35171e-06
-4.74301e-08
7.35569e-06
-4.58495e-08
7.35925e-06
-4.41054e-08
7.36241e-06
-4.2278e-08
7.3652e-06
-4.04403e-08
7.36767e-06
-3.86446e-08
7.36983e-06
-3.69151e-08
7.37174e-06
-3.52672e-08
7.37341e-06
-3.37033e-08
7.37488e-06
-3.22241e-08
-3.082e-08
7.37617e-06
6.36245e-06
4.68731e-09
6.37189e-06
-3.93765e-08
6.37932e-06
-4.75766e-08
6.38596e-06
-5.08425e-08
6.39225e-06
-5.38749e-08
6.39756e-06
-5.43842e-08
6.40186e-06
-5.29846e-08
6.40534e-06
-5.09123e-08
6.40814e-06
-4.86509e-08
6.41033e-06
-4.62918e-08
6.41196e-06
-4.39123e-08
6.41311e-06
-4.15891e-08
6.41384e-06
-3.93732e-08
6.41421e-06
-3.72827e-08
6.41427e-06
-3.53314e-08
6.41408e-06
-3.35154e-08
6.41369e-06
-3.18356e-08
-3.02723e-08
6.41314e-06
5.5412e-06
8.9494e-09
5.55033e-06
-4.85003e-08
5.55835e-06
-5.55958e-08
5.56605e-06
-5.85454e-08
5.57251e-06
-6.03375e-08
5.57684e-06
-5.871e-08
5.57908e-06
-5.52274e-08
5.57964e-06
-5.1473e-08
5.57889e-06
-4.78988e-08
5.5771e-06
-4.45083e-08
5.57451e-06
-4.13202e-08
5.5713e-06
-3.83771e-08
5.56761e-06
-3.56873e-08
5.56357e-06
-3.32425e-08
5.55928e-06
-3.10397e-08
5.55483e-06
-2.90619e-08
5.5503e-06
-2.73109e-08
-2.57375e-08
5.54577e-06
4.86004e-06
-2.3487e-08
4.86539e-06
-5.3843e-08
4.86524e-06
-5.54509e-08
4.86217e-06
-5.54766e-08
4.857e-06
-5.51679e-08
4.8495e-06
-5.12104e-08
4.83981e-06
-4.55321e-08
4.82842e-06
-4.00807e-08
4.81584e-06
-3.53265e-08
4.80257e-06
-3.12311e-08
4.78897e-06
-2.77233e-08
4.77533e-06
-2.47404e-08
4.76185e-06
-2.22046e-08
4.74865e-06
-2.00448e-08
4.73583e-06
-1.82146e-08
4.72345e-06
-1.66811e-08
4.71162e-06
-1.54821e-08
-1.51368e-08
4.70102e-06
4.17919e-06
4.12535e-06
4.0699e-06
4.01442e-06
3.95925e-06
3.90804e-06
3.86251e-06
3.82243e-06
3.7871e-06
3.75587e-06
3.72815e-06
3.70341e-06
3.6812e-06
3.66116e-06
3.64294e-06
3.62626e-06
3.61078e-06
3.59564e-06
1.48819e-08
-1.49045e-08
2.85335e-08
-1.3685e-08
3.57242e-08
-7.21562e-09
3.58667e-08
-1.67031e-10
2.98049e-08
6.04292e-09
1.8887e-08
1.08966e-08
4.43506e-09
1.4437e-08
-1.25304e-08
1.69465e-08
-3.12809e-08
1.8739e-08
-5.1344e-08
2.00468e-08
-7.23984e-08
2.10457e-08
-9.42674e-08
2.18549e-08
-1.1682e-07
2.25459e-08
-1.3999e-07
2.31585e-08
-1.63711e-07
2.37156e-08
-1.87954e-07
2.42335e-08
-2.12686e-07
2.47294e-08
-2.37922e-07
2.52267e-08
-2.63678e-07
2.57542e-08
-2.90032e-07
2.63451e-08
-3.17077e-07
2.70429e-08
-3.44973e-07
2.78877e-08
-3.73837e-07
2.88618e-08
-4.03849e-07
3.00043e-08
-4.35237e-07
3.13853e-08
-4.66653e-07
3.14087e-08
-4.95791e-07
2.91368e-08
-5.24539e-07
2.87422e-08
-5.56037e-07
3.14967e-08
-5.90098e-07
3.4057e-08
-6.26553e-07
3.64541e-08
-6.65839e-07
3.92814e-08
-7.09518e-07
4.36791e-08
-7.61051e-07
5.15283e-08
-8.08065e-07
4.70136e-08
-8.43799e-07
3.57296e-08
-8.82031e-07
3.82316e-08
-9.23169e-07
4.11328e-08
-9.65646e-07
4.24761e-08
-1.0083e-06
4.26449e-08
-1.05119e-06
4.28949e-08
-1.09425e-06
4.30541e-08
-1.13737e-06
4.31188e-08
-1.18049e-06
4.31088e-08
-1.22354e-06
4.30486e-08
-1.26649e-06
4.29526e-08
-1.30932e-06
4.2831e-08
-1.35202e-06
4.269e-08
-1.39455e-06
4.25333e-08
-1.43692e-06
4.23633e-08
-1.47911e-06
4.21807e-08
-1.5211e-06
4.19854e-08
-1.56288e-06
4.17768e-08
-1.60445e-06
4.15538e-08
-1.64577e-06
4.13149e-08
-1.68683e-06
4.10578e-08
-1.72762e-06
4.07807e-08
-1.76811e-06
4.04813e-08
-1.80827e-06
4.01578e-08
-1.84809e-06
3.98074e-08
-1.88752e-06
3.94284e-08
-1.92655e-06
3.90185e-08
-1.96512e-06
3.85761e-08
-2.00323e-06
3.80984e-08
-2.04081e-06
3.75842e-08
-2.07784e-06
3.70308e-08
-2.11428e-06
3.64374e-08
-2.15008e-06
3.58018e-08
-2.1852e-06
3.51235e-08
-2.2196e-06
3.44002e-08
-2.25323e-06
3.3632e-08
-2.28605e-06
3.28166e-08
-2.318e-06
3.19538e-08
-2.34904e-06
3.10419e-08
-2.37912e-06
3.00811e-08
-2.40819e-06
2.90695e-08
-2.43619e-06
2.8008e-08
-2.46309e-06
2.68953e-08
-2.48882e-06
2.57323e-08
-2.51333e-06
2.45166e-08
-2.53657e-06
2.32489e-08
-2.5585e-06
2.1927e-08
-2.57903e-06
2.0551e-08
-2.59814e-06
1.91175e-08
-2.61576e-06
1.76257e-08
-2.63182e-06
1.60716e-08
-2.64625e-06
1.44526e-08
-2.659e-06
1.27623e-08
-2.66997e-06
1.09942e-08
-2.67908e-06
9.13667e-09
-2.68623e-06
7.17239e-09
-2.6913e-06
5.08626e-09
-2.69418e-06
2.88366e-09
-2.6948e-06
6.31497e-10
-2.69332e-06
-1.46281e-09
-2.68995e-06
-3.36176e-09
-2.68473e-06
-5.2094e-09
-2.67768e-06
-7.04831e-09
-2.66877e-06
-8.89645e-09
-2.65801e-06
-1.07569e-08
-2.64537e-06
-1.26281e-08
-2.63085e-06
-1.45073e-08
-2.61445e-06
-1.63905e-08
-2.59615e-06
-1.82741e-08
-2.57597e-06
-2.01542e-08
-2.55392e-06
-2.20264e-08
-2.53e-06
-2.38872e-08
-2.50423e-06
-2.57311e-08
-2.47664e-06
-2.75546e-08
-2.44724e-06
-2.9351e-08
-2.41609e-06
-3.11173e-08
-2.3832e-06
-3.28459e-08
-2.34862e-06
-3.45341e-08
-2.31241e-06
-3.61734e-08
-2.2746e-06
-3.77622e-08
-2.23527e-06
-3.92917e-08
-2.19448e-06
-4.0761e-08
-2.15228e-06
-4.21613e-08
-2.10877e-06
-4.34917e-08
-2.064e-06
-4.47417e-08
-2.01806e-06
-4.59088e-08
-1.97101e-06
-4.7001e-08
-1.92294e-06
-4.80222e-08
-1.87394e-06
-4.89498e-08
-1.82412e-06
-4.9789e-08
-1.77357e-06
-5.05352e-08
-1.72238e-06
-5.12034e-08
-1.67063e-06
-5.17773e-08
-1.61842e-06
-5.22604e-08
-1.56585e-06
-5.26426e-08
-1.51301e-06
-5.29301e-08
-1.46001e-06
-5.31149e-08
-1.40694e-06
-5.32028e-08
-1.35389e-06
-5.31895e-08
-1.30097e-06
-5.30798e-08
-1.24826e-06
-5.2874e-08
-1.19585e-06
-5.25727e-08
-1.14382e-06
-5.2177e-08
-1.09225e-06
-5.16849e-08
-1.04121e-06
-5.11103e-08
-9.90796e-07
-5.04637e-08
-9.4105e-07
-4.9764e-08
-8.92029e-07
-4.90165e-08
-8.4377e-07
-4.823e-08
-7.96315e-07
-4.74038e-08
-7.49689e-07
-4.65504e-08
-7.03917e-07
-4.56726e-08
-6.59006e-07
-4.47854e-08
-6.14966e-07
-4.38898e-08
-5.71784e-07
-4.30026e-08
-5.29449e-07
-4.21272e-08
-4.87929e-07
-4.12819e-08
-4.47194e-07
-4.04678e-08
-4.07191e-07
-3.97041e-08
-3.67869e-07
-3.89963e-08
-3.29151e-07
-3.83621e-08
-2.90971e-07
-3.78014e-08
-2.53225e-07
-3.73397e-08
-2.15824e-07
-3.69783e-08
-1.78653e-07
-3.67238e-08
-1.41596e-07
-3.6598e-08
-1.04481e-07
-3.66372e-08
-6.72236e-08
-3.67747e-08
-2.97768e-08
-3.69504e-08
7.76727e-09
-3.70499e-08
4.52105e-08
-3.69435e-08
8.25868e-08
-3.68953e-08
1.20377e-07
-3.73163e-08
1.59091e-07
-3.82646e-08
1.99179e-07
-3.96476e-08
2.40967e-07
-4.1377e-08
2.84721e-07
-4.33525e-08
3.30587e-07
-4.54965e-08
3.78665e-07
-4.77231e-08
4.2887e-07
-4.98881e-08
4.80835e-07
-5.16672e-08
5.33563e-07
-5.2472e-08
5.84359e-07
-5.05612e-08
6.27226e-07
-4.26682e-08
2.57563e-09
6.24837e-07
7.99038e-09
-2.29137e-08
8.05375e-09
-1.37707e-08
3.34261e-09
-2.51837e-09
-4.61602e-09
7.77926e-09
-1.53755e-08
1.6793e-08
-2.88646e-08
2.43755e-08
-4.49562e-08
3.05208e-08
-6.33938e-08
3.53749e-08
-8.38364e-08
3.91748e-08
-1.05974e-07
4.2176e-08
-1.29542e-07
4.46073e-08
-1.54345e-07
4.66507e-08
-1.80245e-07
4.84406e-08
-2.07166e-07
5.00728e-08
-2.3507e-07
5.1616e-08
-2.63966e-07
5.31234e-08
-2.93879e-07
5.46402e-08
-3.24865e-07
5.62071e-08
-3.56974e-07
5.78615e-08
-3.90276e-07
5.96424e-08
-4.24828e-07
6.1592e-08
-4.60678e-07
6.37337e-08
-4.97847e-07
6.60284e-08
-5.36219e-07
6.83711e-08
-5.75408e-07
7.05725e-08
-6.16144e-07
7.21412e-08
-6.60065e-07
7.3056e-08
-7.0571e-07
7.43835e-08
-7.50662e-07
7.64471e-08
-7.95356e-07
7.87485e-08
-8.40073e-07
8.1169e-08
-8.84571e-07
8.37769e-08
-9.27382e-07
8.64886e-08
-9.64408e-07
8.85521e-08
-1.00461e-06
8.72177e-08
-1.05282e-06
8.39306e-08
-1.09785e-06
8.32628e-08
-1.1403e-06
8.35807e-08
-1.18163e-06
8.3806e-08
-1.22267e-06
8.36788e-08
-1.26322e-06
8.34499e-08
-1.30335e-06
8.31819e-08
-1.34311e-06
8.28737e-08
-1.38253e-06
8.2528e-08
-1.42164e-06
8.21506e-08
-1.46043e-06
8.17477e-08
-1.49893e-06
8.13235e-08
-1.53712e-06
8.08807e-08
-1.57501e-06
8.04201e-08
-1.61259e-06
7.99412e-08
-1.64985e-06
7.94423e-08
-1.68679e-06
7.89215e-08
-1.7234e-06
7.83755e-08
-1.75965e-06
7.78013e-08
-1.79553e-06
7.71949e-08
-1.83103e-06
7.65524e-08
-1.86612e-06
7.58699e-08
-1.90079e-06
7.51434e-08
-1.935e-06
7.43687e-08
-1.96874e-06
7.3542e-08
-2.00198e-06
7.26596e-08
-2.03468e-06
7.17179e-08
-2.06682e-06
7.07134e-08
-2.09837e-06
6.96427e-08
-2.12929e-06
6.85026e-08
-2.15955e-06
6.72901e-08
-2.18911e-06
6.60026e-08
-2.21795e-06
6.46377e-08
-2.24602e-06
6.31933e-08
-2.27328e-06
6.16672e-08
-2.29971e-06
6.00576e-08
-2.32525e-06
5.83627e-08
-2.34988e-06
5.6581e-08
-2.37355e-06
5.47109e-08
-2.39621e-06
5.27514e-08
-2.41785e-06
5.07013e-08
-2.4384e-06
4.85606e-08
-2.45783e-06
4.63283e-08
-2.4761e-06
4.4004e-08
-2.49317e-06
4.15866e-08
-2.50899e-06
3.9076e-08
-2.52353e-06
3.64711e-08
-2.53674e-06
3.37715e-08
-2.54859e-06
3.09759e-08
-2.55904e-06
2.80842e-08
-2.56806e-06
2.50953e-08
-2.57561e-06
2.20091e-08
-2.58166e-06
1.88247e-08
-2.58619e-06
1.55433e-08
-2.58921e-06
1.21663e-08
-2.59073e-06
8.70321e-09
-2.59081e-06
5.17829e-09
-2.58955e-06
1.63305e-09
-2.58702e-06
-1.89254e-09
-2.58307e-06
-5.41243e-09
-2.57746e-06
-8.96339e-09
-2.57012e-06
-1.25487e-08
-2.56099e-06
-1.61656e-08
-2.55007e-06
-1.98137e-08
-2.53734e-06
-2.34897e-08
-2.52277e-06
-2.71874e-08
-2.50637e-06
-3.09005e-08
-2.48813e-06
-3.46209e-08
-2.46805e-06
-3.83412e-08
-2.44613e-06
-4.2053e-08
-2.42239e-06
-4.57482e-08
-2.39684e-06
-4.94178e-08
-2.3695e-06
-5.30528e-08
-2.34038e-06
-5.66433e-08
-2.30953e-06
-6.01796e-08
-2.27697e-06
-6.36513e-08
-2.24274e-06
-6.7048e-08
-2.20689e-06
-7.03592e-08
-2.16946e-06
-7.35741e-08
-2.13051e-06
-7.66827e-08
-2.09011e-06
-7.96745e-08
-2.04831e-06
-8.25402e-08
-2.00518e-06
-8.52701e-08
-1.9608e-06
-8.78549e-08
-1.91524e-06
-9.02839e-08
-1.86858e-06
-9.25503e-08
-1.82089e-06
-9.46544e-08
-1.77228e-06
-9.66021e-08
-1.72282e-06
-9.83805e-08
-1.67262e-06
-9.99748e-08
-1.62176e-06
-1.01386e-07
-1.57034e-06
-1.02629e-07
-1.51844e-06
-1.0369e-07
-1.46616e-06
-1.04564e-07
-1.4136e-06
-1.05244e-07
-1.36085e-06
-1.05732e-07
-1.30801e-06
-1.06022e-07
-1.25516e-06
-1.06118e-07
-1.20241e-06
-1.06019e-07
-1.14985e-06
-1.05732e-07
-1.09755e-06
-1.05259e-07
-1.0456e-06
-1.04606e-07
-9.94077e-07
-1.03774e-07
-9.43046e-07
-1.02773e-07
-8.92575e-07
-1.01615e-07
-8.42735e-07
-1.00325e-07
-7.93578e-07
-9.89247e-08
-7.45154e-07
-9.7437e-08
-6.97496e-07
-9.58681e-08
-6.50635e-07
-9.42379e-08
-6.04587e-07
-9.25533e-08
-5.59367e-07
-9.08407e-08
-5.14974e-07
-8.91083e-08
-4.71403e-07
-8.73834e-08
-4.28633e-07
-8.56741e-08
-3.8664e-07
-8.40139e-08
-3.45381e-07
-8.24118e-08
-3.04813e-07
-8.09002e-08
-2.6487e-07
-7.94881e-08
-2.25484e-07
-7.82169e-08
-1.86565e-07
-7.70927e-08
-1.48024e-07
-7.61503e-08
-1.09743e-07
-7.5408e-08
-7.16035e-08
-7.49038e-08
-3.34708e-08
-7.46244e-08
4.75719e-09
-7.45958e-08
4.31638e-08
-7.47991e-08
8.18817e-08
-7.52544e-08
1.21171e-07
-7.59922e-08
1.61353e-07
-7.69948e-08
2.02821e-07
-7.81674e-08
2.45806e-07
-7.9647e-08
2.90401e-07
-8.16741e-08
3.36728e-07
-8.43658e-08
3.8498e-07
-8.76744e-08
4.35328e-07
-9.15115e-08
4.87918e-07
-9.57319e-08
5.42808e-07
-1.0019e-07
5.99954e-07
-1.04679e-07
6.5911e-07
-1.0887e-07
7.19769e-07
-1.12165e-07
7.80759e-07
-1.13318e-07
8.40377e-07
-1.10052e-07
8.93259e-07
-9.54384e-08
-4.67296e-08
9.42664e-07
-3.42978e-09
-1.94978e-08
-1.28855e-08
-4.32933e-09
-2.46664e-08
9.25408e-09
-3.79643e-08
2.10698e-08
-5.26206e-08
3.14434e-08
-6.8728e-08
4.04767e-08
-8.64272e-08
4.8215e-08
-1.05802e-07
5.47436e-08
-1.26842e-07
6.021e-08
-1.49474e-07
6.48025e-08
-1.73588e-07
6.87175e-08
-1.99078e-07
7.21354e-08
-2.2585e-07
7.52087e-08
-2.53842e-07
7.80598e-08
-2.83014e-07
8.07848e-08
-3.13353e-07
8.34589e-08
-3.44858e-07
8.61425e-08
-3.77538e-07
8.88831e-08
-4.11395e-07
9.17171e-08
-4.46424e-07
9.46677e-08
-4.82571e-07
9.77376e-08
-5.19734e-07
1.00894e-07
-5.57768e-07
1.0406e-07
-5.96511e-07
1.07111e-07
-6.35817e-07
1.09878e-07
-6.75867e-07
1.12188e-07
-7.16844e-07
1.14032e-07
-7.58194e-07
1.15731e-07
-7.99129e-07
1.1738e-07
-8.3936e-07
1.18978e-07
-8.78703e-07
1.20511e-07
-9.16836e-07
1.21908e-07
-9.53356e-07
1.23007e-07
-9.88298e-07
1.23492e-07
-1.02402e-06
1.22937e-07
-1.06182e-06
1.2173e-07
-1.0995e-06
1.20939e-07
-1.13642e-06
1.205e-07
-1.1727e-06
1.20083e-07
-1.20861e-06
1.1959e-07
-1.24422e-06
1.19061e-07
-1.27955e-06
1.18509e-07
-1.31462e-06
1.17938e-07
-1.34944e-06
1.17349e-07
-1.38403e-06
1.16742e-07
-1.41841e-06
1.16118e-07
-1.45256e-06
1.15477e-07
-1.4865e-06
1.14816e-07
-1.52021e-06
1.14134e-07
-1.5537e-06
1.13427e-07
-1.58695e-06
1.12692e-07
-1.61995e-06
1.11923e-07
-1.6527e-06
1.11117e-07
-1.68516e-06
1.10267e-07
-1.71734e-06
1.09368e-07
-1.7492e-06
1.08414e-07
-1.78074e-06
1.074e-07
-1.81192e-06
1.0632e-07
-1.84272e-06
1.05169e-07
-1.87312e-06
1.03941e-07
-1.90309e-06
1.02631e-07
-1.93261e-06
1.01234e-07
-1.96165e-06
9.97446e-08
-1.99016e-06
9.81592e-08
-2.01814e-06
9.64731e-08
-2.04553e-06
9.46822e-08
-2.07231e-06
9.27829e-08
-2.09845e-06
9.07718e-08
-2.1239e-06
8.86458e-08
-2.14863e-06
8.6402e-08
-2.17261e-06
8.40379e-08
-2.1958e-06
8.15508e-08
-2.21815e-06
7.89388e-08
-2.23964e-06
7.61999e-08
-2.26022e-06
7.33325e-08
-2.27985e-06
7.03354e-08
-2.2985e-06
6.72078e-08
-2.31612e-06
6.39488e-08
-2.33267e-06
6.05579e-08
-2.34812e-06
5.70344e-08
-2.36242e-06
5.33784e-08
-2.37553e-06
4.95897e-08
-2.38742e-06
4.56685e-08
-2.39806e-06
4.16154e-08
-2.4074e-06
3.74316e-08
-2.41542e-06
3.31189e-08
-2.42208e-06
2.868e-08
-2.42737e-06
2.41188e-08
-2.43126e-06
1.94412e-08
-2.43374e-06
1.4656e-08
-2.43481e-06
9.77646e-09
-2.43445e-06
4.82364e-09
-2.43263e-06
-1.80692e-10
-2.42929e-06
-5.22901e-09
-2.42436e-06
-1.03423e-08
-2.41778e-06
-1.5536e-08
-2.40953e-06
-2.08022e-08
-2.39956e-06
-2.61305e-08
-2.38786e-06
-3.15122e-08
-2.37441e-06
-3.69378e-08
-2.3592e-06
-4.23971e-08
-2.34221e-06
-4.78788e-08
-2.32345e-06
-5.33714e-08
-2.30292e-06
-5.88629e-08
-2.28062e-06
-6.43409e-08
-2.25657e-06
-6.97928e-08
-2.23076e-06
-7.5205e-08
-2.20324e-06
-8.05638e-08
-2.17401e-06
-8.58543e-08
-2.14311e-06
-9.10621e-08
-2.11057e-06
-9.61712e-08
-2.07643e-06
-1.01167e-07
-2.04074e-06
-1.06033e-07
-2.00354e-06
-1.10754e-07
-1.96489e-06
-1.15314e-07
-1.92485e-06
-1.197e-07
-1.88348e-06
-1.23894e-07
-1.84085e-06
-1.27886e-07
-1.79704e-06
-1.3166e-07
-1.7521e-06
-1.35202e-07
-1.70613e-06
-1.38502e-07
-1.65921e-06
-1.41554e-07
-1.61143e-06
-1.44364e-07
-1.56286e-06
-1.46927e-07
-1.5136e-06
-1.49218e-07
-1.46375e-06
-1.51236e-07
-1.41338e-06
-1.52993e-07
-1.3626e-06
-1.54485e-07
-1.31148e-06
-1.55698e-07
-1.26012e-06
-1.56629e-07
-1.20861e-06
-1.57274e-07
-1.15705e-06
-1.57631e-07
-1.10551e-06
-1.57703e-07
-1.05409e-06
-1.57493e-07
-1.00287e-06
-1.57008e-07
-9.51928e-07
-1.56256e-07
-9.01342e-07
-1.55247e-07
-8.51176e-07
-1.53987e-07
-8.01494e-07
-1.5249e-07
-7.52357e-07
-1.50776e-07
-7.0382e-07
-1.48875e-07
-6.55936e-07
-1.46817e-07
-6.08743e-07
-1.44631e-07
-5.62271e-07
-1.42337e-07
-5.16539e-07
-1.39958e-07
-4.71561e-07
-1.37516e-07
-4.27338e-07
-1.3504e-07
-3.83866e-07
-1.32555e-07
-3.41125e-07
-1.30089e-07
-2.99094e-07
-1.27669e-07
-2.57731e-07
-1.2533e-07
-2.16993e-07
-1.23101e-07
-1.76821e-07
-1.21014e-07
-1.37147e-07
-1.19102e-07
-9.78871e-08
-1.17407e-07
-5.89515e-08
-1.15959e-07
-2.02325e-08
-1.14792e-07
1.83695e-08
-1.13934e-07
5.69684e-08
-1.13421e-07
9.5712e-08
-1.13289e-07
1.34784e-07
-1.13585e-07
1.74375e-07
-1.14312e-07
2.14694e-07
-1.15491e-07
2.55935e-07
-1.17157e-07
2.98336e-07
-1.19317e-07
3.42193e-07
-1.2195e-07
3.87761e-07
-1.25139e-07
4.35191e-07
-1.29032e-07
4.84604e-07
-1.33706e-07
5.36125e-07
-1.39127e-07
5.89874e-07
-1.45192e-07
6.45933e-07
-1.51726e-07
7.04313e-07
-1.58506e-07
7.64914e-07
-1.65219e-07
8.27475e-07
-1.71374e-07
8.915e-07
-1.76136e-07
9.56127e-07
-1.77895e-07
1.0201e-06
-1.73975e-07
1.08191e-06
-1.5721e-07
-1.12353e-07
1.14758e-06
-1.22172e-08
-7.29181e-09
-2.78472e-08
1.12903e-08
-4.44409e-08
2.58417e-08
-6.16217e-08
3.82453e-08
-7.94087e-08
4.92263e-08
-9.79537e-08
5.9017e-08
-1.17445e-07
6.7703e-08
-1.38055e-07
7.53486e-08
-1.59896e-07
8.20472e-08
-1.83023e-07
8.79255e-08
-2.07439e-07
9.31297e-08
-2.33116e-07
9.78081e-08
-2.60007e-07
1.02097e-07
-2.88067e-07
1.06115e-07
-3.17242e-07
1.09958e-07
-3.47487e-07
1.137e-07
-3.78745e-07
1.17399e-07
-4.10955e-07
1.2109e-07
-4.44033e-07
1.24794e-07
-4.77876e-07
1.28508e-07
-5.12345e-07
1.32205e-07
-5.47281e-07
1.35827e-07
-5.82509e-07
1.39287e-07
-6.1788e-07
1.4248e-07
-6.53295e-07
1.45292e-07
-6.88746e-07
1.47637e-07
-7.24243e-07
1.49528e-07
-7.596e-07
1.51086e-07
-7.94626e-07
1.52405e-07
-8.29173e-07
1.53523e-07
-8.63105e-07
1.54442e-07
-8.96327e-07
1.55127e-07
-9.28833e-07
1.55512e-07
-9.60851e-07
1.55508e-07
-9.92981e-07
1.55066e-07
-1.02558e-06
1.54322e-07
-1.05821e-06
1.53568e-07
-1.09059e-06
1.52885e-07
-1.12273e-06
1.5222e-07
-1.15468e-06
1.51536e-07
-1.18646e-06
1.50837e-07
-1.21808e-06
1.50126e-07
-1.24954e-06
1.49403e-07
-1.28086e-06
1.48667e-07
-1.31204e-06
1.47916e-07
-1.34307e-06
1.47149e-07
-1.37396e-06
1.46363e-07
-1.40469e-06
1.45552e-07
-1.43527e-06
1.44714e-07
-1.46569e-06
1.43842e-07
-1.49593e-06
1.4293e-07
-1.52598e-06
1.41973e-07
-1.55583e-06
1.40963e-07
-1.58545e-06
1.39893e-07
-1.61484e-06
1.38757e-07
-1.64398e-06
1.37546e-07
-1.67283e-06
1.36255e-07
-1.70139e-06
1.34875e-07
-1.72962e-06
1.33401e-07
-1.75751e-06
1.31824e-07
-1.78502e-06
1.30139e-07
-1.81213e-06
1.28339e-07
-1.8388e-06
1.26419e-07
-1.86502e-06
1.24372e-07
-1.89074e-06
1.22193e-07
-1.91594e-06
1.19878e-07
-1.94058e-06
1.17421e-07
-1.96462e-06
1.14818e-07
-1.98804e-06
1.12066e-07
-2.0108e-06
1.0916e-07
-2.03286e-06
1.06098e-07
-2.05418e-06
1.02875e-07
-2.07473e-06
9.94905e-08
-2.09447e-06
9.59408e-08
-2.11336e-06
9.22244e-08
-2.13137e-06
8.83396e-08
-2.14844e-06
8.42854e-08
-2.16455e-06
8.00608e-08
-2.17966e-06
7.56654e-08
-2.19372e-06
7.10988e-08
-2.2067e-06
6.63614e-08
-2.21856e-06
6.14536e-08
-2.22926e-06
5.63765e-08
-2.23878e-06
5.1132e-08
-2.24706e-06
4.57224e-08
-2.25409e-06
4.01512e-08
-2.25983e-06
3.44229e-08
-2.26425e-06
2.85435e-08
-2.26733e-06
2.25207e-08
-2.26903e-06
1.6364e-08
-2.26933e-06
1.00852e-08
-2.2682e-06
3.69803e-09
-2.2656e-06
-2.78681e-09
-2.26146e-06
-9.36816e-09
-2.25574e-06
-1.60546e-08
-2.24843e-06
-2.28483e-08
-2.23949e-06
-2.97404e-08
-2.2289e-06
-3.67181e-08
-2.21665e-06
-4.37687e-08
-2.2027e-06
-5.08782e-08
-2.18706e-06
-5.80324e-08
-2.16972e-06
-6.52162e-08
-2.15067e-06
-7.24142e-08
-2.12992e-06
-7.96101e-08
-2.10746e-06
-8.67874e-08
-2.08331e-06
-9.3929e-08
-2.05749e-06
-1.01017e-07
-2.03001e-06
-1.08032e-07
-2.00089e-06
-1.14956e-07
-1.97017e-06
-1.21768e-07
-1.93787e-06
-1.28448e-07
-1.90405e-06
-1.34977e-07
-1.86873e-06
-1.41332e-07
-1.83198e-06
-1.47494e-07
-1.79384e-06
-1.53442e-07
-1.75437e-06
-1.59157e-07
-1.71363e-06
-1.64619e-07