/*--------------------------------*- C++ -*----------------------------------*\
  =========                 |
  \\      /  F ield         | OpenFOAM: The Open Source CFD Toolbox
   \\    /   O peration     | Website:  https://openfoam.org
    \\  /    A nd           | Version:  11
     \\/     M anipulation  |
\*---------------------------------------------------------------------------*/
FoamFile
{
    format      ascii;
    class       volScalarField::Internal;
    location    "200";
    object      tmp<kEpsilon:G>;
}
// * * * * * * * * * * * * * * * * * * * * * * * * * * * * * * * * * * * * * //

dimensions      [0 2 -3 0 0 0 0];

value           nonuniform List<scalar> 
12225
(
0
0
0
0
0
0
0
0
0
0
0
0
0
0
0
0
0
0
947.067
499.277
262.425
277.616
379.801
495.341
604.96
715.412
802.495
888.846
950.179
1009.34
1048.97
1086.27
1113.95
1133.25
1171.32
1145.42
86.0778
123.082
55.4852
17.2166
5.17984
4.39506
8.79615
16.6836
26.6064
38.3829
50.891
64.0881
77.5375
90.4458
104.112
115.591
130.139
136.583
5.16936
1.72712
0.642776
0.702564
0.465941
0.185598
0.0272072
0.189514
0.791127
1.88219
3.44638
5.42532
7.84032
10.4332
13.5116
16.4288
19.9944
22.9197
0.229006
0.132275
0.147924
0.313803
0.425626
0.405532
0.288119
0.15213
0.0557985
0.0243707
0.0745225
0.214016
0.452261
0.773408
1.2057
1.68791
2.2827
2.865
0.17807
0.187859
0.265146
0.319927
0.322034
0.316538
0.288448
0.237164
0.180211
0.124851
0.0777644
0.0432482
0.0261182
0.028794
0.0537922
0.100402
0.166585
0.246854
0.127231
0.210084
0.230402
0.212284
0.211434
0.229505
0.237127
0.225648
0.205871
0.181712
0.155705
0.128594
0.103618
0.0821493
0.0661081
0.0574478
0.0564188
0.062364
0.0977074
0.147812
0.159047
0.156506
0.166779
0.187028
0.199168
0.19863
0.192833
0.184537
0.174392
0.162181
0.149724
0.137787
0.128052
0.121779
0.121031
0.123611
0.0742359
0.104027
0.121583
0.129838
0.141248
0.156909
0.167917
0.171164
0.17093
0.169487
0.166998
0.163411
0.159517
0.156131
0.154316
0.154966
0.159693
0.166156
0.056242
0.0772396
0.0968833
0.108337
0.118849
0.131652
0.141953
0.147072
0.149374
0.150845
0.151832
0.152297
0.152853
0.154032
0.156678
0.161078
0.16852
0.17635
0.0424848
0.0582923
0.0768566
0.0894249
0.0998013
0.11111
0.120758
0.12667
0.130167
0.132884
0.135338
0.137588
0.140069
0.143179
0.147479
0.152996
0.160473
0.16773
0.0325467
0.0451246
0.0620093
0.0750378
0.0854229
0.0957282
0.104691
0.11081
0.114831
0.118047
0.121026
0.123895
0.126975
0.130559
0.134999
0.140207
0.146603
0.152432
0.024655
0.0347748
0.0498977
0.0630042
0.073427
0.0830571
0.0914714
0.0976401
0.101955
0.105399
0.108529
0.111529
0.114631
0.118047
0.121983
0.126317
0.13128
0.135571
0.0176698
0.0257684
0.0389502
0.05156
0.0618934
0.0710105
0.0789305
0.0850511
0.0895442
0.0930961
0.0962073
0.0990945
0.101926
0.104846
0.107961
0.111153
0.114562
0.117283
0.0117376
0.0182903
0.0296355
0.0413807
0.0514021
0.060053
0.0675066
0.0734693
0.0780003
0.0815458
0.0845171
0.0871338
0.0895286
0.0917937
0.0939927
0.096033
0.0980292
0.099402
0.00695741
0.0123451
0.0220647
0.0327692
0.0422944
0.0504903
0.0574991
0.0632016
0.0676195
0.0710349
0.0737629
0.0760081
0.0778882
0.0794754
0.080821
0.0818808
0.0827596
0.0831392
0.00341391
0.00796329
0.0163729
0.0260541
0.0349828
0.0427121
0.0492813
0.0546424
0.0588113
0.0619738
0.0643715
0.0661886
0.0675418
0.0685062
0.0691408
0.0694508
0.0695249
0.0692468
0.00121936
0.00522907
0.0127268
0.0215745
0.0298991
0.0371219
0.0432099
0.0481386
0.0519259
0.054713
0.0566999
0.0580579
0.0589085
0.0593381
0.0594178
0.0591923
0.058723
0.0580395
0.00066861
0.00447516
0.0116218
0.0200812
0.0279943
0.0347639
0.0403708
0.0448097
0.0481016
0.0503857
0.051865
0.0527181
0.0530743
0.0530315
0.05267
0.0520635
0.0512351
0.0503276
0.00202486
0.00608126
0.0136899
0.0224285
0.0302293
0.036674
0.0419089
0.045924
0.0487126
0.0504504
0.0513941
0.0517481
0.0516473
0.0511939
0.0504724
0.0495662
0.0484741
0.0473773
0.00470028
0.0094214
0.0181593
0.027541
0.0352199
0.0412741
0.0461519
0.0497776
0.0520833
0.0533134
0.0537942
0.0537375
0.0532667
0.0524885
0.0514948
0.0503748
0.0491099
0.0478886
0.00868533
0.0148643
0.0252902
0.0352461
0.0427787
0.0485554
0.0530606
0.0560599
0.0576011
0.0581712
0.0581683
0.0577408
0.0569549
0.0559126
0.0547046
0.0534193
0.0520153
0.0506914
0.0139521
0.0239058
0.0362118
0.0444522
0.0509112
0.0572615
0.0624126
0.0650607
0.0656174
0.0652454
0.0645172
0.0634998
0.0621994
0.0607278
0.0591579
0.0575683
0.0558818
0.0542723
0.0214209
0.0421816
0.0593315
0.0605781
0.0598734
0.0639424
0.0699004
0.0737423
0.0749984
0.0749951
0.0742408
0.0727364
0.0705615
0.0679922
0.0651659
0.0622446
0.059151
0.0561815
0.0431815
0.0754126
0.0937699
0.105022
0.0975139
0.0905379
0.0879998
0.0867315
0.0852364
0.083438
0.080537
0.0760877
0.0702607
0.0636937
0.0568034
0.050075
0.0436669
0.0380115
0.0800811
0.213424
0.0681562
0.079121
0.167921
0.215374
0.214719
0.189873
0.158712
0.128087
0.0989493
0.0725865
0.0506687
0.0349068
0.0263811
0.0258636
0.0334628
0.0490695
0.667501
0.126978
0.315731
0.505503
0.37319
0.295626
0.229554
0.14167
0.0605563
0.0116432
0.010596
0.0682011
0.189189
0.374958
0.620526
0.923954
1.27141
1.66081
32.2302
70.9024
43.2293
18.2611
7.06669
2.67132
1.1139
1.0081
1.81674
3.28545
5.2581
7.63544
10.2755
13.1585
16.1299
19.2259
22.2425
25.2881
455.62
257.636
100.996
70.5626
91.6368
128.072
167.963
206.007
241.151
273.902
303.025
329.704
353.019
374.432
392.97
410.452
425.842
440.914
0
0
0
0
0
0
0
0
0
0
0
0
0
0
0
0
0
0
0
0
0
0
0
0
0
0
0
0
0
0
0
0
0
0
0
0
0
0
0
0
0
0
0
0
0
0
0
0
0
0
0
0
0
0
13.1229
14.448
15.6961
17.1591
18.637
20.2289
21.891
23.6431
25.4755
27.3946
29.3977
31.4888
33.6665
35.9348
38.2921
40.7424
43.284
45.9208
48.6507
51.4773
54.3981
57.4164
60.5289
63.7389
67.0419
70.4408
73.9305
77.5134
81.1831
84.9416
88.7816
92.7041
96.7009
100.772
104.909
109.11
113.366
117.675
122.025
126.415
130.831
135.269
139.717
144.171
148.615
153.043
157.44
161.799
166.102
170.341
174.496
178.554
182.497
186.308
189.967
193.455
196.755
199.855
202.765
205.479
207.999
210.314
212.417
214.297
215.944
217.35
218.505
219.401
220.032
220.391
220.472
220.27
219.783
219.008
217.943
216.589
214.947
213.019
210.811
208.325
205.572
202.558
199.295
195.797
192.076
188.062
183.896
179.508
174.972
170.294
165.454
160.484
155.403
150.227
144.976
139.665
134.314
128.939
123.557
118.186
112.839
107.532
102.28
97.0975
91.9984
86.9936
82.0914
77.2986
72.6208
68.0628
63.6277
59.3177
55.133
51.0731
47.1358
43.3185
39.6161
36.0233
32.5329
29.1371
25.8266
22.5916
19.421
16.3036
13.2279
10.182
7.1617
4.19632
1.61752
2.54861
5.39306
8.42948
11.6114
14.9441
18.4573
22.1778
26.1287
30.3247
34.7708
39.4177
44.2823
48.9005
53.8771
52.9801
0
0.00750887
0.0318295
0.073944
0.160856
0.298468
0.477649
0.684628
0.905344
1.1299
1.35393
1.57697
1.8009
2.02872
2.2637
2.50835
2.76424
3.03164
3.30739
3.58231
3.84546
4.0845
4.27593
4.39427
4.48906
4.76214
5.4577
5.66681
5.74182
5.7987
5.83795
5.6554
5.0319
4.18248
4.22627
5.56533
5.69346
5.39667
5.23543
5.16741
5.08411
4.97781
4.86494
4.74635
4.62314
4.49605
4.3661
4.23412
4.10095
3.96725
3.83367
3.70071
3.56897
3.43901
3.31151
3.18704
3.06634
2.95015
2.83937
2.73485
2.63757
2.54859
2.46908
2.40021
2.34327
2.29956
2.27044
2.2573
2.26156
2.2847
2.32816
2.39339
2.48182
2.59491
2.73397
2.90036
3.09522
3.3197
3.57478
3.86144
4.18036
4.53208
4.9168
5.33451
5.78454
6.26564
6.77547
7.31053
7.8656
8.43392
9.00806
9.57951
10.1377
10.6708
11.1582
11.6489
12.1386
12.6391
13.1525
13.6799
14.2211
14.775
15.3404
15.9156
16.4987
17.0877
17.6804
18.2745
18.8672
19.4559
20.0377
20.6095
21.1683
21.7108
22.2338
22.7342
23.2089
23.6551
24.0706
24.4531
24.8
25.1068
25.371
25.5876
25.7588
25.8938
25.986
26.0327
26.0361
25.9969
25.9162
25.7961
25.6382
25.4453
25.22
24.9662
24.6874
24.3876
24.0699
23.7382
23.3972
23.0514
22.7053
22.3626
22.027
21.7022
21.3919
21.1
20.8303
20.5861
20.3713
20.1893
20.0437
19.9381
19.8769
19.8638
19.9035
20.0009
20.1569
20.3761
20.6705
21.0482
21.5224
22.1207
22.8686
23.8494
25.1633
26.7595
28.5887
30.6602
32.9498
35.4304
38.076
40.8577
43.7209
46.662
49.5212
53.1804
56.8537
69.1535
0
0.11716
0.262171
0.379372
0.504101
0.664473
0.874347
1.12926
1.41502
1.71672
2.02345
2.32941
2.63304
2.93526
3.2378
3.54173
3.8466
4.14993
4.44603
4.72455
4.97104
5.17473
5.33495
5.45186
5.55654
5.70247
5.85241
5.8922
5.83358
5.72981
5.62088
5.47889
5.28961
5.12738
5.14855
5.35195
5.43221
5.40329
5.37401
5.41304
5.50788
5.63021
5.77726
5.94768
6.14057
6.35468
6.58899
6.84254
7.11462
7.40457
7.71191
8.03607
8.37662
8.73307
9.10508
9.49222
9.8941
10.3103
10.7404
11.1842
11.641
12.1106
12.5926
13.0864
13.5919
14.1087
14.6363
15.1744
15.7228
16.2808
16.8483
17.425
18.0104
18.6043
19.2065
19.8166
20.4344
21.0593
21.6909
22.3289
22.9728
23.6219
24.2759
24.934
25.5956
26.2601
26.9268
27.5954
28.2665
28.9426
29.6303
30.3412
31.0934
31.9067
32.8136
33.7509
34.7124
35.69
36.6807
37.6827
38.6942
39.713
40.7361
41.7604
42.7821
43.7974
44.8021
45.7919
46.7618
47.7072
48.6225
49.5026
50.3419
51.1349
51.876
52.5597
53.1808
53.7353
54.2197
54.63
54.9598
55.203
55.3646
55.4336
55.4082
55.3055
55.1194
54.8497
54.5003
54.0744
53.5749
53.0071
52.3753
51.6863
50.946
50.1627
49.3444
48.4991
47.6327
46.7515
45.8634
44.9781
44.1056
43.2543
42.4311
41.6427
40.8956
40.1965
39.5513
38.9661
38.446
37.997
37.6239
37.3323
37.1264
37.0079
36.983
37.0615
37.25
37.5604
38.004
38.6081
39.4203
40.4415
41.6541
43.0386
44.5399
46.1425
47.8895
49.8049
51.865
54.0395
56.2997
58.6238
60.9683
63.3788
65.8383
69.4809
74.3311
86.3555
0
0.346291
0.637382
0.849545
1.00662
1.16036
1.34806
1.58086
1.8549
2.1597
2.4835
2.8164
3.15143
3.48412
3.81121
4.12936
4.43406
4.71915
4.97638
5.19597
5.36867
5.48939
5.56016
5.59412
5.61705
5.67114
5.75668
5.81519
5.8368
5.83767
5.82444
5.7974
5.76381
5.77286
5.97592
6.37035
6.72876
7.00992
7.27284
7.55854
7.87211
8.20968
8.57046
8.9543
9.36112
9.79053
10.242
10.7148
11.2085
11.7223
12.2557
12.8082
13.3792
13.9682
14.5749
15.1989
15.8396
16.4968
17.1702
17.8594
18.5641
19.2841
20.019
20.7689
21.5334
22.3125
23.1061
23.9142
24.7366
25.5732
26.4242
27.2895
28.1692
29.0632
29.9718
30.895
31.8329
32.7854
33.7524
34.7341
35.7306
36.7417
37.7677
38.8088
39.8656
40.9387
42.0293
43.1395
44.2727
45.4344
46.6329
47.8755
49.1636
50.4919
51.8539
53.2403
54.6512
56.0822
57.5289
58.9878
60.4556
61.9286
63.4025
64.8728
66.3345
67.7823
69.2106
70.6135
71.9847
73.3174
74.6047
75.8394
77.0142
78.1217
79.1544
80.1048
80.9662
81.7331
82.4003
82.962
83.4107
83.7378
83.9475
84.0342
83.9881
83.8268
83.5504
83.1584
82.6575
82.0511
81.3441
80.5423
79.6529
78.6837
77.6438
76.5439
75.3952
74.208
72.9904
71.7504
70.4981
69.2473
68.0113
66.8027
65.6309
64.5056
63.4353
62.4293
61.4949
60.6407
59.8732
59.197
58.6174
58.145
57.7856
57.5484
57.4429
57.4774
57.6714
58.0402
58.5808
59.2975
60.1893
61.2552
62.5016
63.9119
65.4301
67.0276
68.7295
70.5493
72.4786
74.4881
76.5532
78.6563
80.7891
83.0612
85.568
89.6085
95.2362
105.666
0
0.621283
1.06232
1.39331
1.60146
1.75833
1.92178
2.11494
2.34419
2.60677
2.89482
3.19867
3.50912
3.81824
4.11919
4.40564
4.67117
4.90911
5.11276
5.27626
5.3966
5.47642
5.52561
5.56071
5.60576
5.67917
5.78871
5.917
6.04718
6.17377
6.29768
6.42402
6.56644
6.75622
7.04114
7.42499
7.84436
8.26336
8.68701
9.13108
9.60105
10.0973
10.6201
11.1693
11.745
12.3471
12.9753
13.6293
14.3088
15.0131
15.7422
16.4955
17.273
18.0743
18.8993
19.7476
20.6192
21.514
22.4319
23.3729
24.337
25.3243
26.3349
27.3688
28.4263
29.5076
30.6129
31.7424
32.8963
34.0749
35.2784
36.507
37.761
39.0406
40.346
41.6775
43.0351
44.419
45.8292
47.2658
48.7289
50.2188
51.7356
53.2797
54.852
56.4532
58.0848
59.7488
61.4477
63.1851
64.9649
66.788
68.6494
70.5398
72.4524
74.387
76.344
78.3203
80.3116
82.3135
84.3214
86.3302
88.3345
90.3284
92.3058
94.2601
96.1845
98.0716
99.9139
101.703
103.43
105.088
106.666
108.156
109.548
110.834
112.005
113.054
113.975
114.76
115.399
115.882
116.212
116.388
116.395
116.245
115.947
115.499
114.912
114.188
113.334
112.355
111.262
110.061
108.765
107.387
105.939
104.434
102.882
101.293
99.6797
98.0578
96.4442
94.8532
93.298
91.7903
90.3416
88.9599
87.6547
86.438
85.3195
84.3074
83.413
82.6452
82.0129
81.5323
81.2108
81.0474
81.0483
81.2144
81.5506
82.0618
82.7486
83.6064
84.6347
85.8145
87.1005
88.4595
89.9012
91.4344
93.0584
94.7547
96.5116
98.3325
100.245
102.416
105.025
109.375
115.274
124.183
0
0.87912
1.44061
1.89021
2.16069
2.33288
2.47949
2.63192
2.80459
3.00214
3.22219
3.45824
3.7022
3.94592
4.18196
4.40371
4.60549
4.7826
4.93175
5.05163
5.14389
5.2141
5.27195
5.33066
5.40565
5.51026
5.65028
5.82101
6.01466
6.2264
6.45536
6.70462
6.98236
7.30249
7.68102
8.12183
8.60912
9.12706
9.67115
10.2437
10.8468
11.481
12.147
12.8447
13.5744
14.3361
15.1297
15.9553
16.8128
17.7021
18.6232
19.5761
20.5608
21.5774
22.626
23.7069
24.8202
25.9664
27.1459
28.3589
29.6062
30.888
32.2051
33.5579
34.9472
36.3734
37.8373
39.3393
40.8801
42.4601
44.0799
45.7398
47.4403
49.1816
50.9641
52.7879
54.653
56.5596
58.5074
60.4964
62.5265
64.5974
66.7091
68.8617
71.0551
73.2897
75.566
77.8845
80.2458
82.6506
85.0984
87.5865
90.1083
92.6557
95.2234
97.8105
100.416
103.037
105.668
108.305
110.941
113.572
116.189
118.785
121.355
123.889
126.38
128.82
131.198
133.507
135.735
137.874
139.913
141.84
143.646
145.321
146.854
148.237
149.462
150.519
151.397
152.083
152.579
152.887
152.991
152.894
152.612
152.144
151.5
150.689
149.714
148.583
147.304
145.889
144.349
142.698
140.952
139.125
137.228
135.272
133.274
131.253
129.226
127.208
125.216
123.264
121.369
119.541
117.796
116.145
114.6
113.174
111.882
110.725
109.711
108.844
108.128
107.568
107.169
106.931
106.858
106.95
107.207
107.622
108.189
108.89
109.691
110.564
111.511
112.541
113.656
114.853
116.135
117.527
119.092
121.035
123.577
127.925
133.533
141.154
0
1.08737
1.71817
2.25901
2.58574
2.7777
2.91428
3.03162
3.14959
3.27877
3.42216
3.57765
3.74033
3.90437
4.06409
4.21465
4.35237
4.47499
4.58189
4.67433
4.75568
4.83157
4.90972
4.99941
5.11039
5.25093
5.42609
5.63644
5.87976
6.15373
6.45783
6.7938
7.16578
7.57999
8.04295
8.55752
9.12033
9.7255
10.3692
11.0502
11.7688
12.525
13.3191
14.1514
15.0223
15.932
16.8807
17.8689
18.8967
19.9646
21.073
22.2225
23.4134
24.6466
25.9226
27.2424
28.6067
30.0166
31.4731
32.9772
34.5301
36.133
37.787
39.4933
41.2531
43.0675
44.9376
46.8644
48.8489
50.8919
52.994
55.156
57.3782
59.661
62.0045
64.4088
66.8737
69.3988
71.9836
74.6274
77.3295
80.0889
82.9048
85.776
88.7015
91.6803
94.7111
97.7925
100.923
104.1
107.32
110.579
113.869
117.183
120.515
123.863
127.223
130.591
133.962
137.329
140.686
144.026
147.34
150.62
153.858
157.045
160.171
163.228
166.205
169.092
171.877
174.549
177.098
179.511
181.775
183.88
185.816
187.572
189.138
190.501
191.649
192.569
193.26
193.724
193.947
193.926
193.676
193.199
192.509
191.615
190.522
189.237
187.768
186.127
184.328
182.386
180.318
178.138
175.861
173.498
171.069
168.596
166.098
163.597
161.109
158.654
156.247
153.908
151.654
149.494
147.437
145.496
143.675
141.983
140.426
139.009
137.733
136.605
135.625
134.796
134.115
133.585
133.202
132.96
132.849
132.856
132.953
133.125
133.371
133.701
134.125
134.653
135.303
136.123
137.2
138.76
141.023
145.061
149.962
156.391
0
1.23128
1.86889
2.45882
2.82069
3.02739
3.15622
3.24514
3.31691
3.38613
3.46028
3.5415
3.62873
3.71941
3.81065
3.90002
3.98595
4.068
4.14703
4.22519
4.30592
4.39382
4.49448
4.61413
4.75914
4.93516
5.14624
5.39444
5.68019
6.00341
6.36446
6.76455
7.20601
7.692
8.22575
8.80934
9.44265
10.124
10.8517
11.6247
12.4427
13.3056
14.2138
15.1676
16.1676
17.2143
18.3085
19.451
20.6427
21.8845
23.1774
24.5227
25.9216
27.3755
28.8859
30.4543
32.0826
33.7724
35.5258
37.3445
39.2307
41.1862
43.213
45.3131
47.4882
49.7403
52.0708
54.4815
56.9735
59.548
62.206
64.9481
67.7749
70.6865
73.6827
76.7634
79.9277
83.1748
86.5032
89.9115
93.3979
96.9602
100.596
104.303
108.078
111.919
115.822
119.783
123.798
127.863
131.971
136.116
140.289
144.484
148.692
152.908
157.128
161.345
165.553
169.744
173.909
178.041
182.129
186.165
190.139
194.041
197.861
201.588
205.211
208.719
212.099
215.341
218.431
221.355
224.102
226.66
229.017
231.161
233.079
234.758
236.184
237.344
238.232
238.851
239.188
239.24
239.013
238.515
237.761
236.763
235.529
234.063
232.375
230.478
228.384
226.112
223.677
221.097
218.387
215.566
212.653
209.673
206.648
203.604
200.56
197.537
194.549
191.615
188.749
185.963
183.268
180.674
178.189
175.82
173.572
171.449
169.455
167.591
165.859
164.26
162.793
161.457
160.249
159.162
158.189
157.318
156.534
155.828
155.206
154.681
154.27
153.997
153.895
154.027
154.5
155.538
157.337
160.827
164.773
170.026
0
1.31138
1.89339
2.48442
2.85463
3.06425
3.18337
3.24915
3.28507
3.308
3.32841
3.35183
3.38056
3.41508
3.45512
3.50037
3.55089
3.60742
3.67141
3.7451
3.83136
3.9338
4.05628
4.20307
4.3785
4.58659
4.83068
5.11322
5.43578
5.79951
6.20548
6.65508
7.15006
7.69254
8.28469
8.92835
9.62422
10.3724
11.1728
12.0251
12.9297
13.8869
14.8971
15.9613
17.0802
18.2552
19.4875
20.7786
22.1301
23.5439
25.0217
26.5657
28.1781
29.8612
31.6175
33.4497
35.3605
37.3529
39.4297
41.594
43.8487
46.1969
48.6413
51.1848
53.8301
56.5796
59.4356
62.4001
65.4749
68.6614
71.9606
75.3732
78.8995
82.5394
86.2923
90.1572
94.1327
98.2167
102.407
106.7
111.094
115.584
120.166
124.835
129.587
134.416
139.316
144.282
149.306
154.38
159.497
164.647
169.821
175.01
180.204
185.395
190.576
195.738
200.873
205.972
211.025
216.02
220.949
225.8
230.563
235.226
239.779
244.209
248.506
252.657
256.65
260.471
264.107
267.545
270.772
273.775
276.541
279.059
281.312
283.284
284.964
286.336
287.396
288.137
288.554
288.642
288.405
287.847
286.989
285.843
284.421
282.726
280.768
278.559
276.116
273.454
270.594
267.554
264.353
261.014
257.559
254.013
250.398
246.738
243.055
239.367
235.695
232.056
228.465
224.935
221.48
218.109
214.829
211.646
208.568
205.596
202.736
199.986
197.35
194.826
192.416
190.117
187.928
185.843
183.858
181.966
180.161
178.444
176.826
175.328
173.976
172.803
171.857
171.212
170.983
171.385
172.571
175.342
178.212
182.337
0
1.33637
1.80998
2.35885
2.7105
2.90876
3.01364
3.0595
3.06911
3.05995
3.04406
3.02907
3.01958
3.01831
3.02687
3.04658
3.07845
3.12374
3.18406
3.26137
3.35782
3.47624
3.61943
3.79051
3.99266
4.22895
4.50221
4.81492
5.16916
5.56669
6.00917
6.49829
7.03588
7.6239
8.26434
8.95905
9.7091
10.516
11.3804
12.3032
13.2856
14.3283
15.4327
16.6002
17.8325
19.1316
20.4997
21.9394
23.4531
25.0437
26.7141
28.4677
30.3077
32.2378
34.2617
36.3834
38.607
40.9365
43.3764
45.9307
48.6037
51.3993
54.3217
57.3745
60.5611
63.8849
67.3486
70.9548
74.7053
78.6018
82.6453
86.8362
91.1743
95.659
100.289
105.062
109.975
115.026
120.21
125.522
130.957
136.51
142.174
147.941
153.804
159.754
165.784
171.883
178.043
184.251
190.498
196.772
203.06
209.352
215.635
221.898
228.131
234.323
240.464
246.542
252.544
258.46
264.276
269.982
275.565
281.013
286.315
291.458
296.429
301.217
305.808
310.189
314.347
318.267
321.936
325.343
328.474
331.314
333.847
336.059
337.937
339.467
340.639
341.443
341.878
341.939
341.624
340.933
339.892
338.518
336.829
334.827
332.52
329.923
327.054
323.932
320.577
317.008
313.248
309.318
305.241
301.041
296.745
292.374
287.952
283.5
279.04
274.588
270.164
265.779
261.448
257.181
252.986
248.87
244.837
240.892
237.038
233.276
229.609
226.035
222.557
219.172
215.882
212.684
209.577
206.56
203.636
200.813
198.113
195.563
193.196
191.057
189.201
187.715
186.711
186.387
186.849
188.786
190.54
193.58
0
1.31983
1.64691
2.12056
2.43131
2.6049
2.69013
2.71746
2.70796
2.6786
2.64178
2.60613
2.57742
2.55946
2.55473
2.56528
2.59274
2.63868
2.70464
2.79226
2.90331
3.0398
3.20388
3.39791
3.62438
3.88585
4.18486
4.5239
4.9053
5.33125
5.80386
6.32521
6.8975
7.52302
8.20409
8.94319
9.74207
10.603
11.5273
12.5169
13.5735
14.6993
15.8965
17.1676
18.5155
19.9434
21.4547
23.0531
24.7426
26.5272
28.4114
30.3995
32.4967
34.7078
37.0383
39.4937
42.0796
44.8016
47.6654
50.6765
53.8405
57.1625
60.6476
64.3004
68.1252
72.1256
76.305
80.6661
85.2109
89.9407
94.8561
99.957
105.242
110.711
116.359
122.183
128.18
134.344
140.668
147.147
153.771
160.532
167.421
174.428
181.541
188.75
196.041
203.403
210.821
218.283
225.774
233.28
240.786
248.276
255.737
263.153
270.511
277.799
285.002
292.106
299.098
305.963
312.688
319.26
325.666
331.892
337.927
343.757
349.371
354.754
359.897
364.784
369.403
373.739
377.782
381.517
384.931
388.009
390.733
393.088
395.063
396.643
397.818
398.578
398.922
398.849
398.346
397.411
396.082
394.371
392.313
389.906
387.159
384.086
380.704
377.031
373.087
368.894
364.476
359.856
355.056
350.104
345.025
339.842
334.58
329.261
323.908
318.542
313.178
307.834
302.523
297.256
292.041
286.886
281.795
276.774
271.826
266.953
262.156
257.439
252.801
248.245
243.771
239.384
235.084
230.879
226.777
222.797
218.965
215.319
211.898
208.755
205.955
203.586
201.758
200.644
200.306
201.344
201.988
203.997
0
1.27721
1.43572
1.81354
2.06784
2.20633
2.26683
2.27559
2.25168
2.21094
2.16518
2.12269
2.08969
2.0703
2.06746
2.08335
2.11939
2.17694
2.2572
2.36139
2.49089
2.64724
2.83228
3.04801
3.29664
3.58054
3.90225
4.26438
4.66955
5.12036
5.6194
6.16931
6.77287
7.43293
8.15227
8.93398
9.78071
10.6963
11.6827
12.743
13.88
15.0967
16.397
17.7848
19.2647
20.8415
22.5202
24.3061
26.2048
28.2218
30.3632
32.6352
35.0446
37.5981
40.3029
43.1663
46.1956
49.3979
52.7805
56.3503
60.1139
64.0775
68.2471
72.628
77.2247
82.0413
87.081
92.3463
97.8388
103.559
109.507
115.68
122.078
128.695
135.528
142.57
149.816
157.256
164.884
172.687
180.655
188.777
197.039
205.428
213.928
222.525
231.202
239.943
248.731
257.55
266.381
275.207
284.008
292.766
301.465
310.085
318.611
327.025
335.312
343.454
351.435
359.241
366.857
374.267
381.459
388.417
395.13
401.584
407.765
413.663
419.264
424.556
429.526
434.163
438.454
442.389
445.951
449.127
451.898
454.25
456.171
457.651
458.68
459.25
459.364
459.016
458.194
456.892
455.157
452.99
450.442
447.511
444.203
440.532
436.514
432.167
427.514
422.58
417.388
411.963
406.33
400.516
394.545
388.445
382.238
375.951
369.605
363.224
356.825
350.426
344.041
337.683
331.359
325.08
318.849
312.672
306.554
300.497
294.505
288.581
282.726
276.947
271.246
265.63
260.106
254.687
249.387
244.233
239.258
234.504
230.022
225.868
222.113
218.845
216.167
214.228
213.051
213.163
212.735
213.772
0
1.22241
1.20582
1.4793
1.66888
1.76556
1.79788
1.78773
1.75207
1.70544
1.65879
1.62013
1.59476
1.58631
1.59716
1.62891
1.68272
1.75946
1.85994
1.98506
2.13592
2.31389
2.52059
2.75794
3.02815
3.33367
3.67726
4.0618
4.49037
4.96605
5.49209
6.07198
6.70931
7.40786
8.17154
9.00452
9.91023
10.8926
11.9559
13.1046
14.3434
15.6772
17.1114
18.6519
20.3053
22.0783
23.978
26.0116
28.1864
30.51
32.9904
35.6357
38.4548
41.4565
44.6498
48.0439
51.6476
55.4697
59.5186
63.8022
68.328
73.1029
78.1329
83.4234
88.9788
94.8025
100.897
107.264
113.904
120.815
127.995
135.441
143.148
151.11
159.319
167.767
176.444
185.338
194.437
203.727
213.194
222.822
232.594
242.491
252.496
262.589
272.749
282.956
293.191
303.432
313.657
323.846
333.976
344.024
353.971
363.795
373.476
382.994
392.332
401.47
410.389
419.073
427.505
435.669
443.552
451.138
458.414
465.367
471.985
478.255
484.167
489.706
494.863
499.628
503.992
507.943
511.468
514.553
517.184
519.35
521.044
522.25
522.969
523.181
522.909
522.124
520.824
518.996
516.694
513.91
510.712
507.102
503.082
498.663
493.863
488.701
483.202
477.392
471.298
464.944
458.358
451.565
444.592
437.465
430.21
422.853
415.419
407.93
400.408
392.869
385.331
377.805
370.302
362.83
355.398
348.009
340.669
333.384
326.157
318.992
311.896
304.873
297.933
291.083
284.338
277.713
271.23
264.917
258.819
252.981
247.46
242.32
237.631
233.479
229.954
227.186
225.163
224.355
222.915
223.045
0
1.16688
0.981472
1.15279
1.27657
1.32921
1.33127
1.30174
1.25628
1.20788
1.16627
1.13822
1.12817
1.13873
1.17134
1.2267
1.30517
1.40701
1.53263
1.68263
1.85798
2.06
2.29041
2.55127
2.84503
3.17461
3.54321
3.95435
4.4119
4.91978
5.48291
6.10533
6.79174
7.54691
8.37575
9.28334
10.2753
11.3575
12.5366
13.8191
15.2122
16.7231
18.3595
20.1297
22.0425
24.1069
26.3323
28.7281
31.3037
34.0689
37.0339
40.2093
43.6057
47.2343
51.1055
55.2301
59.6181
64.279
69.2217
74.4544
79.9844
85.8181
91.9606
98.4163
105.188
112.277
119.684
127.409
135.448
143.798
152.453
161.407
170.651
180.176
189.97
200.02
210.313
220.833
231.564
242.488
253.585
264.837
276.221
287.716
299.299
310.945
322.632
334.336
346.033
357.696
369.303
380.828
392.245
403.53
414.658
425.607
436.353
446.874
457.15
467.159
476.881
486.298
495.393
504.147
512.547
520.578
528.229
535.485
542.334
548.767
554.775
560.347
565.476
570.154
574.372
578.121
581.389
584.166
586.438
588.203
589.449
590.171
590.349
590.01
589.132
587.708
585.731
583.185
580.127
576.542
572.507
568.04
563.134
557.8
552.056
545.923
539.428
532.599
525.466
518.054
510.391
502.501
494.414
486.155
477.753
469.233
460.622
451.944
443.221
434.472
425.714
416.962
408.225
399.515
390.838
382.203
373.615
365.08
356.604
348.193
339.856
331.6
323.436
315.378
307.444
299.656
292.04
284.627
277.462
270.599
264.094
258.009
252.413
247.397
243.04
239.454
236.599
234.9
232.519
231.825
0
1.11881
0.779133
0.85807
0.919738
0.929475
0.902421
0.854961
0.801841
0.755039
0.723125
0.711471
0.722985
0.758888
0.819364
0.904073
1.01255
1.14445
1.29983
1.47922
1.68363
1.91465
2.17444
2.46558
2.79168
3.15613
3.56307
4.01694
4.52264
5.08557
5.71139
6.40631
7.17679
8.02958
8.97215
10.0115
11.1563
12.4152
13.7977
15.3133
16.972
18.7842
20.7608
22.9126
25.251
27.7875
30.5339
33.5021
36.7036
40.1504
43.8549
47.8298
52.0874
56.6399
61.4987
66.6746
72.1773
78.0157
84.1974
90.729
97.6156
104.861
112.468
120.438
128.769
137.459
146.506
155.904
165.646
175.724
186.127
196.845
207.865
219.171
230.748
242.578
254.644
266.924
279.399
292.046
304.843
317.765
330.788
343.885
357.032
370.202
383.368
396.5
409.571
422.552
435.417
448.14
460.692
473.046
485.174
497.053
508.657
519.964
530.949
541.594
551.877
561.778
571.279
580.362
589.013
597.221
604.974
612.26
619.066
625.386
631.215
636.543
641.365
645.678
649.472
652.742
655.474
657.67
659.312
660.407
660.947
660.903
660.318
659.161
657.435
655.136
652.257
648.778
644.753
640.161
635.086
629.567
623.589
617.161
610.302
603.034
595.388
587.396
579.087
570.488
561.626
552.529
543.223
533.736
524.096
514.332
504.47
494.536
484.552
474.539
464.515
454.496
444.492
434.517
424.578
414.685
404.843
395.062
385.349
375.72
366.176
356.73
347.393
338.184
329.124
320.234
311.532
303.063
294.879
287.033
279.589
272.607
266.172
260.352
255.217
250.863
247.226
244.7
241.476
240.062
0
1.08101
0.604101
0.604365
0.611343
0.58242
0.5292
0.467534
0.411545
0.37201
0.355915
0.366928
0.406287
0.473696
0.568058
0.688069
0.832656
1.00128
1.19418
1.41214
1.65678
1.93039
2.23609
2.57784
2.96024
3.38871
3.86909
4.40789
5.01233
5.69059
6.45115
7.3032
8.25633
9.32064
10.5066
11.8258
13.2913
14.9159
16.713
18.6962
20.8793
23.2767
25.9026
28.7707
31.8949
35.2889
38.9657
42.939
47.222
51.8281
56.7709
62.0632
67.7166
73.7417
80.1476
86.9421
94.1311
101.719
109.709
118.103
126.899
136.097
145.692
155.679
166.052
176.801
187.917
199.388
211.201
223.343
235.797
248.546
261.571
274.853
288.372
302.104
316.027
330.116
344.349
358.699
373.141
387.646
402.188
416.739
431.271
445.756
460.163
474.461
488.621
502.616
516.417
529.999
543.333
556.389
569.14
581.562
593.631
605.323
616.617
627.492
637.929
647.908
657.409
666.416
674.915
682.9
690.361
697.286
703.665
709.493
714.769
719.486
723.641
727.231
730.249
732.697
734.554
735.844
736.535
736.647
736.15
735.084
733.408
731.136
728.271
724.814
720.761
716.089
710.844
704.995
698.63
691.821
684.54
676.797
668.609
660.004
651.015
641.677
632.02
622.072
611.86
601.411
590.752
579.913
568.921
557.808
546.6
535.323
524.002
512.658
501.31
489.974
478.665
467.393
456.171
445.006
433.906
422.883
411.945
401.098
390.355
379.73
369.241
358.907
348.757
338.815
329.118
319.695
310.6
301.887
293.618
285.868
278.69
272.16
266.335
261.299
256.963
253.697
249.71
247.702
0
1.04546
0.463714
0.407487
0.374566
0.318772
0.250295
0.184794
0.135776
0.11261
0.120423
0.161039
0.234113
0.338216
0.471537
0.632479
0.820142
1.0346
1.27706
1.54975
1.85578
2.19932
2.58586
3.02219
3.51644
4.07717
4.71368
5.43613
6.25591
7.18572
8.23919
9.4317
10.7782
12.2944
13.9972
15.9046
18.0351
20.4069
23.0379
25.9455
29.1469
32.6596
36.5001
40.6831
45.2224
50.1314
55.423
61.107
67.1961
73.7017
80.6337
87.9995
95.8041
104.05
112.739
121.87
131.439
141.442
151.872
162.721
173.98
185.637
197.68
210.096
222.868
235.98
249.416
263.157
277.185
291.48
306.02
320.783
335.749
350.892
366.19
381.617
397.149
412.761
428.426
444.118
459.811
475.478
491.089
506.616
522.031
537.305
552.412
567.321
582.006
596.439
610.595
624.45
637.975
651.145
663.932
676.314
688.267
699.77
710.804
721.353
731.4
740.926
749.913
758.344
766.217
773.524
780.257
786.404
791.952
796.902
801.253
805
808.145
810.677
812.601
813.918
814.595
814.68
814.104
812.967
811.199
808.813
805.811
802.193
797.97
793.154
787.74
781.711
775.086
767.837
760.036
751.8
743.092
733.917
724.294
714.253
703.831
693.066
681.987
670.624
659.001
647.146
635.086
622.85
610.47
597.975
585.395
572.756
560.083
547.396
534.717
522.063
509.449
496.889
484.395
471.975
459.637
447.395
435.26
423.26
411.395
399.679
388.134
376.785
365.66
354.804
344.222
333.963
324.083
314.632
305.671
297.242
289.427
282.293
275.882
270.269
265.342
261.456
256.84
254.44
0
1.00622
0.360585
0.277289
0.226612
0.162212
0.0947847
0.0399041
0.00989945
0.012357
0.0505631
0.124947
0.234593
0.378192
0.554547
0.763146
1.00488
1.28257
1.60077
1.96538
2.38309
2.8621
3.41318
4.04957
4.78605
5.63849
6.62364
7.75901
9.06468
10.5637
12.2802
14.2387
16.4623
18.9731
21.7945
24.9503
28.4646
32.3597
36.655
41.366
46.5068
52.0914
58.1315
64.6375
71.6166
79.0753
87.0133
95.4279
104.327
113.71
123.571
133.904
144.698
155.941
167.62
179.72
192.225
205.119
218.382
231.996
245.943
260.202
274.755
289.58
304.656
319.963
335.48
351.186
367.061
383.081
399.227
415.475
431.804
448.192
464.616
481.053
497.48
513.873
530.211
546.468
562.622
578.647
594.517