/*--------------------------------*- C++ -*----------------------------------*\
  =========                 |
  \\      /  F ield         | OpenFOAM: The Open Source CFD Toolbox
   \\    /   O peration     | Website:  https://openfoam.org
    \\  /    A nd           | Version:  11
     \\/     M anipulation  |
\*---------------------------------------------------------------------------*/
FoamFile
{
    format      ascii;
    class       volVectorField;
    location    "200";
    object      U;
}
// * * * * * * * * * * * * * * * * * * * * * * * * * * * * * * * * * * * * * //

dimensions      [0 1 -1 0 0 0 0];

internalField   nonuniform List<vector> 
12225
(
(9.85697 -0.886445 0)
(9.66664 -0.740745 0)
(9.4557 -0.429481 0)
(9.22451 -0.222211 0)
(9.00645 -0.106454 0)
(8.81432 -0.0458638 0)
(8.64739 -0.0151701 0)
(8.50519 0.000457111 0)
(8.38346 0.00839614 0)
(8.28066 0.0122884 0)
(8.19216 0.0140087 0)
(8.1159 0.0150295 0)
(8.04899 0.0154389 0)
(7.98978 0.0156353 0)
(7.93619 0.0156618 0)
(7.88948 0.0156274 0)
(7.83427 0.0171882 0)
(7.82455 0.0124015 0)
(10.0545 0.227567 0)
(10.121 0.326913 0)
(10.1196 0.261574 0)
(10.0856 0.186545 0)
(10.0434 0.134674 0)
(9.99669 0.101122 0)
(9.94397 0.0792975 0)
(9.8852 0.0645793 0)
(9.82382 0.0542778 0)
(9.76127 0.0466977 0)
(9.69977 0.0409415 0)
(9.63989 0.036403 0)
(9.58253 0.0327696 0)
(9.52805 0.0299443 0)
(9.47607 0.0275626 0)
(9.42836 0.0268762 0)
(9.38044 0.0240079 0)
(9.34661 0.0337503 0)
(10.0035 0.0579195 0)
(10.0303 0.0560104 0)
(10.0561 0.033785 0)
(10.0703 0.0329039 0)
(10.077 0.0406557 0)
(10.0778 0.0465566 0)
(10.0725 0.0493745 0)
(10.0613 0.050325 0)
(10.0461 0.0502307 0)
(10.0276 0.0495276 0)
(10.0071 0.0484994 0)
(9.9848 0.047359 0)
(9.96161 0.0462089 0)
(9.93788 0.0451967 0)
(9.91385 0.044215 0)
(9.89032 0.0439995 0)
(9.86682 0.0434537 0)
(9.84501 0.0462056 0)
(9.99779 0.0110552 0)
(10.011 0.026613 0)
(10.035 0.0371577 0)
(10.0525 0.0480956 0)
(10.0643 0.0554658 0)
(10.0734 0.0582021 0)
(10.0795 0.0583776 0)
(10.0823 0.0576432 0)
(10.0827 0.0566051 0)
(10.0811 0.055424 0)
(10.078 0.0541737 0)
(10.0736 0.052976 0)
(10.0682 0.0518321 0)
(10.062 0.0508578 0)
(10.0551 0.0499707 0)
(10.0481 0.0496008 0)
(10.0409 0.0491446 0)
(10.034 0.0499532 0)
(9.99935 0.00720022 0)
(10.009 0.0316607 0)
(10.0275 0.0439314 0)
(10.0418 0.0499358 0)
(10.0528 0.0536292 0)
(10.0628 0.0552591 0)
(10.0715 0.0555463 0)
(10.0783 0.0552661 0)
(10.0834 0.054736 0)
(10.0872 0.0540506 0)
(10.0899 0.0532676 0)
(10.0918 0.0524866 0)
(10.0929 0.0517294 0)
(10.0935 0.0510824 0)
(10.0936 0.0505156 0)
(10.0935 0.0502461 0)
(10.0933 0.0499937 0)
(10.0934 0.0501281 0)
(10.0003 0.0091811 0)
(10.0083 0.0311777 0)
(10.0227 0.0409549 0)
(10.0349 0.0454086 0)
(10.045 0.0490587 0)
(10.0547 0.0514002 0)
(10.0637 0.0523896 0)
(10.0713 0.0526339 0)
(10.0778 0.0525151 0)
(10.0833 0.0521729 0)
(10.0881 0.0516863 0)
(10.0923 0.0511476 0)
(10.0959 0.0505981 0)
(10.0991 0.0501018 0)
(10.1019 0.0496549 0)
(10.1045 0.0493531 0)
(10.1072 0.0490639 0)
(10.11 0.048788 0)
(10.0005 0.00894812 0)
(10.0071 0.0270947 0)
(10.0191 0.0364262 0)
(10.0301 0.0414088 0)
(10.0396 0.0454381 0)
(10.0486 0.0481105 0)
(10.0572 0.0493887 0)
(10.0649 0.0498703 0)
(10.0716 0.0499595 0)
(10.0777 0.0498042 0)
(10.0832 0.0494853 0)
(10.0882 0.049084 0)
(10.0928 0.0486488 0)
(10.097 0.0482253 0)
(10.101 0.0478183 0)
(10.1049 0.04746 0)
(10.1087 0.0470708 0)
(10.1126 0.0465526 0)
(10.0004 0.00791993 0)
(10.006 0.0233901 0)
(10.0161 0.0327506 0)
(10.0263 0.0381222 0)
(10.0351 0.0421236 0)
(10.0436 0.0448144 0)
(10.0517 0.046235 0)
(10.0591 0.0468811 0)
(10.0659 0.0471195 0)
(10.072 0.047097 0)
(10.0778 0.046895 0)
(10.0831 0.0465868 0)
(10.088 0.0462224 0)
(10.0927 0.0458352 0)
(10.0972 0.0454311 0)
(10.1016 0.0450108 0)
(10.1059 0.044516 0)
(10.1103 0.0438456 0)
(10.0004 0.00696487 0)
(10.0051 0.0204395 0)
(10.0137 0.029471 0)
(10.0229 0.034885 0)
(10.0312 0.0387428 0)
(10.0391 0.0414126 0)
(10.0468 0.0429547 0)
(10.054 0.0437413 0)
(10.0606 0.0440973 0)
(10.0667 0.0441748 0)
(10.0724 0.044057 0)
(10.0778 0.0438122 0)
(10.0829 0.0434884 0)
(10.0878 0.0431126 0)
(10.0924 0.0426889 0)
(10.097 0.0422064 0)
(10.1015 0.0416178 0)
(10.106 0.0408489 0)
(10.0004 0.00613462 0)
(10.0043 0.0178757 0)
(10.0116 0.0262954 0)
(10.0199 0.031608 0)
(10.0276 0.0353403 0)
(10.0351 0.0379751 0)
(10.0424 0.0395973 0)
(10.0493 0.0404875 0)
(10.0557 0.0409308 0)
(10.0617 0.0410819 0)
(10.0673 0.0410245 0)
(10.0727 0.0408222 0)
(10.0778 0.0405197 0)
(10.0827 0.0401408 0)
(10.0874 0.0396887 0)
(10.092 0.0391505 0)
(10.0965 0.038489 0)
(10.1009 0.03766 0)
(10.0003 0.00537523 0)
(10.0037 0.0155679 0)
(10.0099 0.0232593 0)
(10.0173 0.028375 0)
(10.0245 0.0319656 0)
(10.0315 0.0345243 0)
(10.0384 0.036172 0)
(10.0449 0.0371265 0)
(10.0511 0.0376306 0)
(10.057 0.0378338 0)
(10.0625 0.0378188 0)
(10.0678 0.0376443 0)
(10.0729 0.0373519 0)
(10.0777 0.0369636 0)
(10.0824 0.0364835 0)
(10.0869 0.0359012 0)
(10.0913 0.0351903 0)
(10.0957 0.0343301 0)
(10.0003 0.00471043 0)
(10.0032 0.0136276 0)
(10.0086 0.0206141 0)
(10.0152 0.025465 0)
(10.0219 0.0288901 0)
(10.0285 0.0313435 0)
(10.035 0.0329723 0)
(10.0413 0.0339532 0)
(10.0473 0.0344906 0)
(10.053 0.034724 0)
(10.0584 0.0347338 0)
(10.0636 0.0345746 0)
(10.0686 0.0342851 0)
(10.0734 0.0338866 0)
(10.078 0.0333851 0)
(10.0824 0.0327745 0)
(10.0867 0.0320371 0)
(10.0909 0.0311705 0)
(10.0003 0.00409607 0)
(10.0028 0.0118597 0)
(10.0075 0.0181164 0)
(10.0134 0.0226261 0)
(10.0196 0.025851 0)
(10.0259 0.0281735 0)
(10.032 0.0297506 0)
(10.0381 0.0307304 0)
(10.0438 0.0312822 0)
(10.0494 0.0315319 0)
(10.0547 0.031556 0)
(10.0597 0.0314056 0)
(10.0646 0.0311167 0)
(10.0693 0.0307101 0)
(10.0738 0.030194 0)
(10.0781 0.0295673 0)
(10.0823 0.0288193 0)
(10.0863 0.0279613 0)
(10.0002 0.00346142 0)
(10.0024 0.0100219 0)
(10.0064 0.0154369 0)
(10.0117 0.0194805 0)
(10.0174 0.0224215 0)
(10.0232 0.0245531 0)
(10.029 0.0260274 0)
(10.0347 0.0269681 0)
(10.0403 0.0275089 0)
(10.0456 0.0277574 0)
(10.0507 0.0277841 0)
(10.0557 0.0276356 0)
(10.0604 0.0273448 0)
(10.0649 0.0269321 0)
(10.0693 0.026408 0)
(10.0735 0.0257763 0)
(10.0776 0.0250331 0)
(10.0814 0.0241993 0)
(10.0002 0.00280239 0)
(10.002 0.0081128 0)
(10.0055 0.0125858 0)
(10.0101 0.0160333 0)
(10.0153 0.0185881 0)
(10.0206 0.0204532 0)
(10.026 0.0217602 0)
(10.0314 0.0226095 0)
(10.0367 0.0231019 0)
(10.0418 0.0233237 0)
(10.0468 0.0233356 0)
(10.0515 0.0231789 0)
(10.0561 0.0228828 0)
(10.0605 0.0224671 0)
(10.0647 0.0219438 0)
(10.0688 0.0213211 0)
(10.0727 0.0206004 0)
(10.0764 0.0198083 0)
(10.0002 0.00211824 0)
(10.0017 0.00613431 0)
(10.0047 0.00957125 0)
(10.0087 0.0122888 0)
(10.0134 0.0143381 0)
(10.0183 0.0158434 0)
(10.0233 0.0169038 0)
(10.0283 0.0175949 0)
(10.0333 0.0179885 0)
(10.0382 0.0181478 0)
(10.0429 0.0181209 0)
(10.0475 0.017942 0)
(10.0519 0.0176355 0)
(10.0562 0.0172195 0)
(10.0602 0.0167068 0)
(10.0641 0.0161075 0)
(10.0678 0.0154265 0)
(10.0713 0.0146924 0)
(10.0002 0.0014059 0)
(10.0015 0.00407208 0)
(10.0041 0.00637671 0)
(10.0076 0.00822967 0)
(10.0118 0.00964216 0)
(10.0163 0.010679 0)
(10.0209 0.0114007 0)
(10.0257 0.0118562 0)
(10.0304 0.0120901 0)
(10.035 0.0121432 0)
(10.0395 0.0120481 0)
(10.0439 0.0118293 0)
(10.0481 0.0115054 0)
(10.0522 0.0110908 0)
(10.0561 0.0105969 0)
(10.0598 0.0100337 0)
(10.0633 0.00940698 0)
(10.0667 0.00874387 0)
(10.0001 0.000648783 0)
(10.0013 0.00187394 0)
(10.0036 0.00292955 0)
(10.0069 0.00377507 0)
(10.0107 0.00440896 0)
(10.0149 0.00485403 0)
(10.0192 0.00513308 0)
(10.0237 0.00526591 0)
(10.0281 0.00527165 0)
(10.0326 0.00516833 0)
(10.0369 0.00497111 0)
(10.0411 0.00469226 0)
(10.0451 0.00434182 0)
(10.049 0.0039285 0)
(10.0527 0.00345988 0)
(10.0563 0.00294348 0)
(10.0597 0.00238354 0)
(10.0629 0.00180326 0)
(10.0001 -0.000196305 0)
(10.0013 -0.000582428 0)
(10.0035 -0.000944023 0)
(10.0066 -0.00126801 0)
(10.0103 -0.0015555 0)
(10.0143 -0.00182022 0)
(10.0185 -0.00208008 0)
(10.0228 -0.00234733 0)
(10.0272 -0.00262939 0)
(10.0314 -0.00293211 0)
(10.0356 -0.00325995 0)
(10.0397 -0.00361556 0)
(10.0436 -0.00399977 0)
(10.0473 -0.00441214 0)
(10.0509 -0.00485127 0)
(10.0543 -0.00531458 0)
(10.0576 -0.00580109 0)
(10.0607 -0.0062941 0)
(10.0001 -0.00100504 0)
(10.0013 -0.00293995 0)
(10.0037 -0.00466831 0)
(10.007 -0.00610742 0)
(10.0108 -0.00725545 0)
(10.015 -0.00817202 0)
(10.0193 -0.00891856 0)
(10.0237 -0.00953717 0)
(10.0281 -0.0100622 0)
(10.0324 -0.0105253 0)
(10.0365 -0.0109513 0)
(10.0405 -0.0113571 0)
(10.0444 -0.0117537 0)
(10.0481 -0.0121488 0)
(10.0516 -0.0125473 0)
(10.055 -0.0129516 0)
(10.0582 -0.013364 0)
(10.0612 -0.0137738 0)
(10.0002 -0.00170253 0)
(10.0015 -0.00499897 0)
(10.0041 -0.00792313 0)
(10.0078 -0.0102713 0)
(10.012 -0.0120658 0)
(10.0165 -0.0134566 0)
(10.021 -0.0145497 0)
(10.0256 -0.0154023 0)
(10.0301 -0.0160712 0)
(10.0344 -0.016615 0)
(10.0386 -0.0170783 0)
(10.0427 -0.0174897 0)
(10.0466 -0.0178685 0)
(10.0503 -0.0182284 0)
(10.0538 -0.0185788 0)
(10.0571 -0.018925 0)
(10.0603 -0.0192714 0)
(10.0633 -0.019611 0)
(10.0002 -0.00236492 0)
(10.0017 -0.00703351 0)
(10.0047 -0.0111751 0)
(10.009 -0.0143426 0)
(10.0137 -0.0166371 0)
(10.0185 -0.0183689 0)
(10.0234 -0.019698 0)
(10.0282 -0.0206952 0)
(10.0329 -0.0214421 0)
(10.0374 -0.0220196 0)
(10.0417 -0.0224846 0)
(10.0458 -0.0228735 0)
(10.0497 -0.0232129 0)
(10.0534 -0.0235224 0)
(10.0569 -0.0238148 0)
(10.0602 -0.0240981 0)
(10.0634 -0.0243776 0)
(10.0664 -0.0246491 0)
(10.0002 -0.0029849 0)
(10.0018 -0.00909367 0)
(10.0054 -0.0144489 0)
(10.0105 -0.0183371 0)
(10.0159 -0.0210802 0)
(10.0212 -0.0231014 0)
(10.0263 -0.024556 0)
(10.0314 -0.0255691 0)
(10.0363 -0.026295 0)
(10.041 -0.0268437 0)
(10.0454 -0.0272717 0)
(10.0495 -0.0276145 0)
(10.0535 -0.0279016 0)
(10.0572 -0.0281555 0)
(10.0607 -0.0283901 0)
(10.0641 -0.0286141 0)
(10.0672 -0.0288328 0)
(10.0702 -0.029044 0)
(10.0001 -0.00353141 0)
(10.0018 -0.0115488 0)
(10.0063 -0.0178856 0)
(10.0123 -0.0219831 0)
(10.0183 -0.0250499 0)
(10.0241 -0.027459 0)
(10.0297 -0.0290968 0)
(10.0351 -0.0301065 0)
(10.0402 -0.0307586 0)
(10.0449 -0.031218 0)
(10.0494 -0.0315523 0)
(10.0537 -0.0318021 0)
(10.0577 -0.0320012 0)
(10.0614 -0.0321737 0)
(10.065 -0.0323328 0)
(10.0683 -0.0324861 0)
(10.0714 -0.032637 0)
(10.0744 -0.0327823 0)
(9.99991 -0.00338047 0)
(10.0016 -0.0149665 0)
(10.0073 -0.022725 0)
(10.0142 -0.0262369 0)
(10.0206 -0.028824 0)
(10.0269 -0.0311894 0)
(10.0331 -0.0329106 0)
(10.039 -0.0339985 0)
(10.0445 -0.0346982 0)
(10.0495 -0.0351619 0)
(10.0541 -0.0354602 0)
(10.0584 -0.0356471 0)
(10.0624 -0.035769 0)
(10.0661 -0.0358565 0)
(10.0695 -0.0359279 0)
(10.0727 -0.035993 0)
(10.0756 -0.0360568 0)
(10.0783 -0.0361177 0)
(9.9986 -0.000397868 0)
(9.99909 -0.0157552 0)
(10.0076 -0.0274289 0)
(10.0166 -0.03249 0)
(10.0238 -0.0348666 0)
(10.0306 -0.0362223 0)
(10.0376 -0.0369741 0)
(10.0441 -0.0374407 0)
(10.0499 -0.0377891 0)
(10.055 -0.0380363 0)
(10.0596 -0.0381813 0)
(10.0637 -0.0382495 0)
(10.0672 -0.0382707 0)
(10.0704 -0.0382662 0)
(10.0732 -0.0382512 0)
(10.0756 -0.038234 0)
(10.0778 -0.0382187 0)
(10.0796 -0.0382032 0)
(9.99488 0.00133575 0)
(9.99288 -0.00809173 0)
(10.006 -0.0203509 0)
(10.0202 -0.0322758 0)
(10.0307 -0.0404777 0)
(10.0393 -0.0441489 0)
(10.0467 -0.045061 0)
(10.0529 -0.044916 0)
(10.0578 -0.0444488 0)
(10.0617 -0.043853 0)
(10.0647 -0.0432083 0)
(10.0668 -0.0425717 0)
(10.0683 -0.0419774 0)
(10.0691 -0.0414336 0)
(10.0695 -0.0409501 0)
(10.0693 -0.0405232 0)
(10.0689 -0.0401502 0)
(10.0681 -0.0398058 0)
(9.99473 -0.0305612 0)
(9.99926 -0.0228713 0)
(10.0147 -0.00263491 0)
(10.0304 -0.00190881 0)
(10.0434 -0.011658 0)
(10.0533 -0.0209215 0)
(10.0594 -0.0272782 0)
(10.0619 -0.0315057 0)
(10.0615 -0.0342802 0)
(10.0591 -0.0359763 0)
(10.0551 -0.0369081 0)
(10.0498 -0.0373416 0)
(10.0435 -0.0374673 0)
(10.0365 -0.0374049 0)
(10.029 -0.0372449 0)
(10.021 -0.0370425 0)
(10.0129 -0.0368625 0)
(10.0047 -0.0366739 0)
(10.0273 -0.182758 0)
(10.0763 -0.288313 0)
(10.0872 -0.247755 0)
(10.0777 -0.186519 0)
(10.0664 -0.140296 0)
(10.0538 -0.108221 0)
(10.0365 -0.0858809 0)
(10.0145 -0.0704206 0)
(9.9894 -0.0596515 0)
(9.96237 -0.0518774 0)
(9.9344 -0.0460551 0)
(9.90609 -0.0415575 0)
(9.87792 -0.0380016 0)
(9.85022 -0.0351268 0)
(9.82323 -0.0327607 0)
(9.79707 -0.0308402 0)
(9.77198 -0.0293242 0)
(9.74799 -0.0285056 0)
(9.93574 0.689319 0)
(9.86861 0.609605 0)
(9.76454 0.380623 0)
(9.62665 0.217442 0)
(9.4859 0.119268 0)
(9.35722 0.063187 0)
(9.2427 0.0315758 0)
(9.14116 0.0136162 0)
(9.05148 0.00326324 0)
(8.97251 -0.00279797 0)
(8.90262 -0.00635353 0)
(8.84045 -0.00847278 0)
(8.78475 -0.00972367 0)
(8.73465 -0.0104699 0)
(8.68923 -0.0109733 0)
(8.64789 -0.0112429 0)
(8.6097 -0.0114502 0)
(8.57437 -0.0121113 0)
(0.00711018 -0.0163082 -8.36452e-19)
(0.0206444 -0.0199789 6.27052e-19)
(0.0297292 -0.0130422 0)
(0.0331382 -0.00339212 0)
(0.0302952 0.00531937 0)
(0.0224845 0.0117931 -2.79756e-19)
(0.0109713 0.0160504 0)
(-0.00318048 0.0185996 0)
(-0.0191816 0.0200318 0)
(-0.036533 0.0208313 0)
(-0.0548994 0.0213085 1.52197e-19)
(-0.0740681 0.0216347 0)
(-0.0939091 0.0218943 0)
(-0.114339 0.0221228 0)
(-0.135302 0.0223354 0)
(-0.156762 0.0225465 9.98267e-20)
(-0.178688 0.0227812 0)
(-0.201063 0.023079 0)
(-0.223914 0.0234888 0)
(-0.247325 0.0240849 0)
(-0.271366 0.0249907 0)
(-0.296103 0.026285 0)
(-0.321723 0.0278034 0)
(-0.348366 0.0294889 7.77135e-20)
(-0.375843 0.0311181 -7.72852e-20)
(-0.403942 0.0271222 7.59172e-20)
(-0.432172 0.0155419 7.34862e-20)
(-0.458096 0.0114947 0)
(-0.48431 0.018527 0)
(-0.514446 0.0259939 -6.6158e-20)
(-0.546687 0.0353235 -6.3717e-20)
(-0.581401 0.0483083 0)
(-0.619177 0.0667514 0)
(-0.659887 0.0924049 -6.42045e-20)
(-0.704865 0.0714935 0)
(-0.747674 0.0248272 0)
(-0.779086 0.0265229 7.89559e-20)
(-0.814262 0.0332542 0)
(-0.85256 0.0358308 7.3654e-20)
(-0.892002 0.0351953 1.42386e-19)
(-0.93107 0.0352579 0)
(-0.970539 0.0352748 0)
(-1.01014 0.0351989 0)
(-1.04982 0.0350322 0)
(-1.08952 0.0348142 0)
(-1.1292 0.0345625 1.18996e-19)
(-1.16883 0.0342903 1.15911e-19)
(-1.2084 0.0340048 1.13007e-19)
(-1.24789 0.0337099 0)
(-1.28728 0.033409 -1.0769e-19)
(-1.32658 0.0331025 0)
(-1.36576 0.0327914 1.02935e-19)
(-1.40481 0.0324751 1.00741e-19)
(-1.44373 0.0321534 0)
(-1.4825 0.0318244 0)
(-1.5211 0.0314872 0)
(-1.55952 0.0311401 9.29721e-20)
(-1.59773 0.030782 0)
(-1.63572 0.0304109 0)
(-1.67347 0.0300254 0)
(-1.71094 0.0296242 0)
(-1.74811 0.0292062 0)
(-1.78495 0.0287695 0)
(-1.82143 0.0283132 0)
(-1.85752 0.0278359 0)
(-1.89318 0.0273368 -7.96784e-20)
(-1.92838 0.026815 0)
(-1.96307 0.0262699 0)
(-1.99723 0.0257009 7.61095e-20)
(-2.03079 0.0251075 7.49868e-20)
(-2.06374 0.0244892 0)
(-2.09601 0.0238457 -7.28273e-20)
(-2.12757 0.0231765 7.17856e-20)
(-2.15837 0.0224815 0)
(-2.18837 0.0217606 -6.97655e-20)
(-2.21752 0.0210135 0)
(-2.24576 0.0202408 0)
(-2.27306 0.0194422 6.68631e-20)
(-2.29936 0.0186173 0)
(-2.32461 0.0177649 -6.49902e-20)
(-2.34876 0.0168847 0)
(-2.37176 0.0159744 6.31486e-20)
(-2.39355 0.0150316 6.22352e-20)
(-2.41409 0.0140523 6.13238e-20)
(-2.43331 0.0130319 1.20827e-19)
(-2.45116 0.0119634 -1.19003e-19)
(-2.46757 0.0108394 0)
(-2.48248 0.00965101 0)
(-2.4958 0.00839172 0)
(-2.50746 0.00705955 -1.11628e-19)
(-2.51738 0.00566537 -1.09754e-19)
(-2.52547 0.00424247 1.07868e-19)
(-2.53159 0.00283777 0)
(-2.5356 0.00149628 -1.04055e-19)
(-2.5374 0.000290749 -1.02058e-19)
(-2.53752 -0.000801733 -1.00016e-19)
(-2.53589 -0.00186743 0)
(-2.53253 -0.00292634 0)
(-2.52745 -0.00398818 0)
(-2.52061 -0.0050534 -9.13173e-20)
(-2.51202 -0.00612119 0)
(-2.50165 -0.00719078 0)
(-2.48948 -0.00826085 8.41203e-20)
(-2.47552 -0.00933006 0)
(-2.45975 -0.0103968 0)
(-2.44218 -0.0114594 7.62244e-20)
(-2.42281 -0.0125159 0)
(-2.40164 -0.013564 0)
(-2.3787 -0.0146018 -6.75181e-20)
(-2.35399 -0.0156261 -6.44174e-20)
(-2.32754 -0.0166351 0)
(-2.29937 -0.0176251 5.78947e-20)
(-2.26953 -0.0185945 0)
(-2.23804 -0.0195391 -5.09201e-20)
(-2.20494 -0.020458 0)
(-2.1703 -0.0213464 -4.34666e-20)
(-2.13415 -0.0222031 -3.95528e-20)
(-2.09655 -0.0230232 0)
(-2.05758 -0.0238051 0)
(-2.01728 -0.0245409 0)
(-1.97573 -0.0252269 0)
(-1.933 -0.0258872 0)
(-1.88915 -0.0265114 0)
(-1.84427 -0.0270771 0)
(-1.79844 -0.0276048 -3.42666e-21)
(-1.75176 -0.0280795 -1.71897e-21)
(-1.70432 -0.0285061 0)
(-1.65618 -0.0288799 0)
(-1.60745 -0.0292024 0)
(-1.5582 -0.0294663 0)
(-1.50854 -0.0296744 -5.92233e-20)
(-1.45855 -0.0298212 0)
(-1.40833 -0.0299095 8.3555e-20)
(-1.35798 -0.0299355 -9.61477e-20)
(-1.30758 -0.0299018 0)
(-1.25722 -0.0298062 0)
(-1.207 -0.0296491 0)
(-1.15699 -0.0294281 1.49303e-19)
(-1.10726 -0.0291438 1.63283e-19)
(-1.0579 -0.0288024 0)
(-1.00899 -0.0284104 1.92066e-19)
(-0.960603 -0.0279757 2.06859e-19)
(-0.912783 -0.0275014 -2.21914e-19)
(-0.865579 -0.0269891 0)
(-0.81903 -0.0264401 0)
(-0.773172 -0.0258588 -2.68616e-19)
(-0.728033 -0.0252488 0)
(-0.68363 -0.0246155 0)
(-0.639974 -0.0239622 0)
(-0.597063 -0.0232957 0)
(-0.554891 -0.0226209 3.51544e-19)
(-0.513435 -0.0219458 3.68927e-19)
(-0.472666 -0.0212744 0)
(-0.432545 -0.0206153 4.04604e-19)
(-0.393022 -0.0199761 0)
(-0.354032 -0.0193662 0)
(-0.315504 -0.0187909 4.60843e-19)
(-0.277352 -0.0182639 0)
(-0.239479 -0.0177946 5.00746e-19)
(-0.201779 -0.0173909 0)
(-0.164135 -0.0170687 0)
(-0.126394 -0.016856 5.66071e-19)
(-0.0884233 -0.0167745 0)
(-0.0501508 -0.0168275 6.15137e-19)
(-0.0114328 -0.0169498 0)
(0.0274936 -0.0168853 0)
(0.0660735 -0.0165001 0)
(0.104891 -0.0161118 -6.42955e-19)
(0.144801 -0.0159772 0)
(0.186073 -0.0160954 6.15122e-19)
(0.229101 -0.0164244 0)
(0.274207 -0.0169097 0)
(0.321638 -0.0175075 0)
(0.371563 -0.0181833 0)
(0.424058 -0.0188868 0)
(0.478751 -0.0194892 0)
(0.535788 -0.019714 0)
(0.590153 -0.0189733 -1.04563e-18)
(0.650522 -0.015815 0)
(0.65731 0.00268086 0)
(0.00459145 -0.0414137 1.8663e-18)
(0.00813563 -0.0314323 -9.49418e-19)
(0.005726 -0.0133666 0)
(6.53925e-05 0.00382731 2.87491e-19)
(-0.00818909 0.0186794 0)
(-0.0190115 0.030611 1.06664e-19)
(-0.0322416 0.0396579 -1.93495e-19)
(-0.0476874 0.0462449 -1.7776e-19)
(-0.0650769 0.0509485 0)
(-0.0841159 0.0543229 -1.53104e-19)
(-0.104547 0.0568095 -7.16663e-20)
(-0.126168 0.0587205 0)
(-0.148833 0.0602606 0)
(-0.172452 0.0615588 0)
(-0.196975 0.0626963 0)
(-0.222396 0.0637283 -5.54181e-20)
(-0.24873 0.0646994 0)
(-0.276022 0.0656515 1.0346e-19)
(-0.304336 0.0666278 0)
(-0.333735 0.0676823 0)
(-0.364246 0.0688908 -9.724e-20)
(-0.395919 0.0703263 0)
(-0.428831 0.0719925 9.60494e-20)
(-0.462903 0.0738578 -4.81365e-20)
(-0.49777 0.0758732 4.82984e-20)
(-0.533984 0.0775326 -4.82102e-20)
(-0.572273 0.0786584 -4.78002e-20)
(-0.612854 0.0800175 0)
(-0.654225 0.082159 0)
(-0.694769 0.0844258 4.49971e-20)
(-0.73523 0.086173 -4.33218e-20)
(-0.775504 0.0874792 0)
(-0.814994 0.0885988 0)
(-0.851148 0.0899406 4.11706e-20)
(-0.887984 0.0904892 0)
(-0.927925 0.0899259 0)
(-0.970051 0.0906453 -3.90543e-20)
(-1.01008 0.0914651 0)
(-1.04867 0.0919355 3.69458e-20)
(-1.0865 0.091765 -7.24738e-20)
(-1.12398 0.0912498 0)
(-1.16113 0.0905968 0)
(-1.19797 0.0898358 -1.35212e-19)
(-1.23455 0.0889975 -1.32397e-19)
(-1.27089 0.0881038 -1.29725e-19)
(-1.307 0.0871733 6.3432e-20)
(-1.34288 0.0862175 -6.25423e-20)
(-1.37854 0.085245 -1.83845e-19)
(-1.41398 0.0842595 1.20253e-19)
(-1.44919 0.0832637 5.92312e-20)
(-1.48417 0.0822572 0)
(-1.51891 0.0812396 -5.72514e-20)
(-1.55341 0.0802088 5.60062e-20)
(-1.58764 0.0791627 0)
(-1.6216 0.078098 0)
(-1.65527 0.0770119 0)
(-1.68864 0.0759009 -5.29198e-20)
(-1.72168 0.0747622 0)
(-1.75437 0.0735923 1.02469e-19)
(-1.78669 0.0723886 0)
(-1.81862 0.0711482 9.95834e-20)
(-1.85013 0.0698689 0)
(-1.8812 0.0685482 -9.68514e-20)
(-1.91178 0.0671839 0)
(-1.94186 0.065774 9.42498e-20)
(-1.97141 0.0643169 -4.63616e-20)
(-2.00039 0.0628114 0)
(-2.02876 0.0612565 -9.05462e-20)
(-2.05651 0.0596515 -4.48023e-20)
(-2.08358 0.0579957 -4.42124e-20)
(-2.10994 0.0562889 0)
(-2.13557 0.0545305 -4.28266e-20)
(-2.16041 0.0527207 -4.24848e-20)
(-2.18444 0.0508591 0)
(-2.20762 0.0489464 4.13582e-20)
(-2.2299 0.0469827 -8.14045e-20)
(-2.25125 0.0449694 0)
(-2.27163 0.0429072 -3.96867e-20)
(-2.291 0.040797 0)
(-2.30931 0.0386389 1.15567e-19)
(-2.32653 0.0364342 0)
(-2.34262 0.0341831 -1.12228e-19)
(-2.35753 0.0318865 -3.68887e-20)
(-2.37124 0.0295439 3.621e-20)
(-2.38369 0.0271559 7.12956e-20)
(-2.39485 0.0247214 -7.01598e-20)
(-2.40469 0.0222395 0)
(-2.41318 0.0197065 0)
(-2.42028 0.017118 0)
(-2.42599 0.0144659 1.96509e-19)
(-2.43031 0.0117447 6.42701e-20)
(-2.43326 0.00896349 -6.30063e-20)
(-2.43492 0.00615849 0)
(-2.43536 0.00339456 -6.04773e-20)
(-2.4347 0.00075838 5.90432e-20)
(-2.43252 -0.0017644 5.76524e-20)
(-2.42874 -0.00424634 0)
(-2.4233 -0.00670473 0)
(-2.41618 -0.00914841 0)
(-2.40735 -0.0115777 5.17937e-20)
(-2.3968 -0.0139894 0)
(-2.38451 -0.0163795 -9.76874e-20)
(-2.37046 -0.0187432 -1.41555e-19)
(-2.35466 -0.0210759 9.12377e-20)
(-2.33709 -0.0233729 0)
(-2.31777 -0.0256295 4.24985e-20)
(-2.29668 -0.0278409 0)
(-2.27386 -0.0300021 7.74295e-20)
(-2.2493 -0.032108 -3.7205e-20)
(-2.22302 -0.0341531 -3.53596e-20)
(-2.19506 -0.0361327 0)
(-2.16544 -0.0380406 -9.31253e-20)
(-2.1342 -0.0398727 5.83557e-20)
(-2.10136 -0.0416227 2.67298e-20)
(-2.06699 -0.0432872 0)
(-2.03112 -0.0448603 2.25086e-20)
(-1.99381 -0.0463391 6.19669e-20)
(-1.95512 -0.0477186 0)
(-1.91511 -0.0489963 3.27974e-20)
(-1.87385 -0.050167 2.82733e-20)
(-1.8314 -0.0512306 2.36796e-20)
(-1.78784 -0.0521881 0)
(-1.74325 -0.0530457 0)
(-1.6977 -0.0537913 0)
(-1.65129 -0.0544207 -2.93481e-21)
(-1.60409 -0.0549427 6.99475e-22)
(-1.5562 -0.0553681 0)
(-1.50769 -0.055685 1.00826e-20)
(-1.45867 -0.0558948 1.50775e-20)
(-1.4092 -0.0559936 0)
(-1.3594 -0.0559861 2.6407e-20)
(-1.30933 -0.0558691 6.03917e-20)
(-1.25911 -0.0556485 -3.65308e-20)
(-1.20881 -0.0553235 -3.90497e-20)
(-1.15853 -0.0549005 0)
(-1.10835 -0.0543816 0)
(-1.05836 -0.053772 0)
(-1.00862 -0.0530727 -6.16715e-20)
(-0.95921 -0.0522887 6.41762e-20)
(-0.910194 -0.0514286 1.40645e-19)
(-0.861643 -0.0505068 -7.63849e-20)
(-0.813621 -0.0495365 7.88783e-20)
(-0.766179 -0.0485294 8.59369e-20)
(-0.719359 -0.0474902 0)
(-0.673193 -0.0464267 0)
(-0.627706 -0.0453443 -9.76734e-20)
(-0.582916 -0.0442542 0)
(-0.538831 -0.0431626 0)
(-0.49545 -0.0420802 2.23705e-19)
(-0.452761 -0.041013 0)
(-0.410744 -0.0399745 1.19279e-19)
(-0.369368 -0.0389711 -1.24883e-19)
(-0.328589 -0.0380149 0)
(-0.288353 -0.0371117 1.30972e-19)
(-0.248595 -0.0362775 0)
(-0.209237 -0.0355172 0)
(-0.170186 -0.0348428 -1.42738e-19)
(-0.131336 -0.0342643 2.90846e-19)
(-0.0925696 -0.0337986 -1.49046e-19)
(-0.053754 -0.033445 0)
(-0.0147443 -0.0332166 0)
(0.0245522 -0.0330953 1.5651e-19)
(0.0641731 -0.0330394 0)
(0.104375 -0.0330542 1.57314e-19)
(0.145499 -0.0331449 0)
(0.187881 -0.0332352 0)
(0.231871 -0.0333887 0)
(0.277686 -0.0338034 1.56792e-19)
(0.325421 -0.0345552 0)
(0.375242 -0.0356031 -1.56297e-19)
(0.427349 -0.0368934 0)
(0.481931 -0.0383534 0)
(0.539135 -0.0399151 3.11229e-19)
(0.598995 -0.0414943 -3.1131e-19)
(0.661418 -0.0429552 0)
(0.72595 -0.044065 0)
(0.792285 -0.0442888 0)
(0.856971 -0.0427292 9.50975e-19)
(0.924593 -0.0360236 0)
(0.964032 -0.0129935 -6.63874e-19)
(-0.00247525 -0.043362 -1.01746e-21)
(-0.00766779 -0.0194944 9.0514e-19)
(-0.0163872 0.00417952 0)
(-0.027363 0.0249413 -3.61669e-19)
(-0.0398162 0.0428578 0)
(-0.0535107 0.0579848 0)
(-0.0685511 0.0704099 2.81907e-23)
(-0.0850643 0.0803649 1.1248e-19)
(-0.10309 0.0882204 1.06014e-19)
(-0.12259 0.0944091 1.00633e-19)
(-0.143477 0.09935 0)
(-0.165652 0.103402 0)
(-0.189025 0.106849 -8.81162e-20)
(-0.213528 0.109903 -1.69743e-19)
(-0.239118 0.112726 1.64017e-19)
(-0.265776 0.11544 0)
(-0.293499 0.118144 1.54658e-19)
(-0.322298 0.120923 -7.54841e-20)
(-0.352188 0.12385 0)
(-0.383176 0.126984 1.45402e-19)
(-0.415232 0.130359 7.1713e-20)
(-0.448285 0.13396 -1.41869e-19)
(-0.482222 0.137707 -7.01938e-20)
(-0.51688 0.141417 0)
(-0.552095 0.144789 1.3696e-19)
(-0.587926 0.147421 1.34542e-19)
(-0.624601 0.149239 0)
(-0.662053 0.151128 1.28674e-19)
(-0.699517 0.153158 0)
(-0.736364 0.155069 1.21578e-19)
(-0.772495 0.156793 5.92347e-20)
(-0.807703 0.158251 0)
(-0.841699 0.15931 0)
(-0.874344 0.159459 0)
(-0.906746 0.157131 0)
(-0.940267 0.153259 0)
(-0.974793 0.150799 0)
(-1.00912 0.149247 1.00556e-19)
(-1.04282 0.147769 -1.47596e-19)
(-1.07604 0.146168 0)
(-1.10899 0.14455 0)
(-1.14173 0.142923 0)
(-1.17427 0.14128 1.57229e-22)
(-1.20663 0.139621 8.90767e-20)
(-1.23883 0.137949 1.74731e-19)
(-1.27086 0.136268 -1.71609e-19)
(-1.30275 0.134581 -8.42251e-20)
(-1.33448 0.132887 8.296e-20)
(-1.36606 0.131187 -1.72209e-22)
(-1.39748 0.129479 8.00833e-20)
(-1.42874 0.12776 0)
(-1.45983 0.126024 7.75714e-20)
(-1.49074 0.12427 -1.76133e-22)
(-1.52145 0.12249 0)
(-1.55195 0.120681 0)
(-1.58222 0.118837 -7.30264e-20)
(-1.61225 0.116953 0)
(-1.64202 0.115026 0)
(-1.6715 0.113049 6.97802e-20)
(-1.70067 0.111019 1.37963e-19)
(-1.72952 0.108931 -6.82024e-20)
(-1.75801 0.106784 0)
(-1.78613 0.104572 6.63609e-20)
(-1.81383 0.102294 0)
(-1.8411 0.099947 6.42678e-20)
(-1.86789 0.0975284 6.37256e-20)
(-1.8942 0.0950371 -1.25441e-19)
(-1.91997 0.0924715 -6.17345e-20)
(-1.94518 0.089831 0)
(-1.96979 0.0871147 1.20488e-19)
(-1.99377 0.0843224 0)
(-2.01709 0.0814537 1.76035e-19)
(-2.03971 0.078509 1.15675e-19)
(-2.06159 0.0754884 1.1409e-19)
(-2.08269 0.0723928 -1.12511e-19)
(-2.10298 0.069223 1.66516e-19)
(-2.12242 0.0659806 0)
(-2.14097 0.0626668 0)
(-2.15859 0.0592832 -1.0621e-19)
(-2.17524 0.0558308 -1.57027e-19)
(-2.19089 0.0523118 0)
(-2.20549 0.0487273 5.0791e-20)
(-2.21901 0.0450796 0)
(-2.23141 0.0413703 -1.47358e-19)
(-2.24266 0.0376022 -9.94425e-23)
(-2.25271 0.0337781 8.31007e-23)
(-2.26155 0.0299021 9.3226e-20)
(-2.26914 0.0259789 0)
(-2.27546 0.0220158 -8.98102e-20)
(-2.28049 0.0180225 -1.12692e-23)
(-2.28422 0.0140139 0)
(-2.28664 0.010011 0)
(-2.28773 0.00603565 0)
(-2.28743 0.00209884 8.07156e-20)
(-2.2857 -0.00182511 0)
(-2.28245 -0.005754 0)
(-2.27764 -0.00967543 0)
(-2.27123 -0.0135826 0)
(-2.26319 -0.0174703 0)
(-2.25351 -0.0213328 6.86695e-20)
(-2.24216 -0.0251631 0)
(-2.22913 -0.0289535 6.40949e-20)
(-2.21441 -0.0326962 6.18499e-20)
(-2.19798 -0.0363833 -5.95646e-20)
(-2.17986 -0.0400069 0)
(-2.16004 -0.0435591 -5.48706e-20)
(-2.13852 -0.0470316 0)
(-2.11532 -0.0504164 -5.00102e-20)
(-2.09045 -0.0537048 4.75174e-20)
(-2.06393 -0.0568886 1.3584e-19)
(-2.03579 -0.0599592 0)
(-2.00605 -0.0629085 1.20365e-19)
(-1.97475 -0.0657279 3.81712e-20)
(-1.94193 -0.06841 0)
(-1.90763 -0.0709469 6.45565e-20)
(-1.8719 -0.073332 5.90711e-20)
(-1.83479 -0.0755588 -7.9673e-20)
(-1.79637 -0.0776219 0)
(-1.75669 -0.0795152 -2.04697e-20)
(-1.71582 -0.0812334 -1.75858e-20)
(-1.67383 -0.0827728 -4.53864e-20)
(-1.63079 -0.0841353 0)
(-1.58677 -0.0853299 0)
(-1.54187 -0.0863538 0)
(-1.49616 -0.0871919 -4.32544e-21)
(-1.44972 -0.0878504 0)
(-1.40265 -0.0883446 0)
(-1.35501 -0.0886704 -6.09313e-21)
(-1.3069 -0.0888245 -9.07774e-21)
(-1.2584 -0.0888068 0)
(-1.2096 -0.0886198 0)
(-1.16058 -0.0882652 -3.59522e-20)
(-1.11143 -0.0877483 0)
(-1.06223 -0.0870735 4.76454e-20)
(-1.01308 -0.0862487 5.18892e-20)
(-0.964036 -0.0852807 0)
(-0.915188 -0.0841773 0)
(-0.8666 -0.0829446 -6.88546e-20)
(-0.818336 -0.0815921 -1.4647e-21)
(-0.770454 -0.0801332 -1.44082e-21)
(-0.723017 -0.0785874 0)
(-0.67608 -0.0769735 -1.82146e-19)
(-0.629689 -0.0753086 0)
(-0.583877 -0.0736034 0)
(-0.53867 -0.0718705 0)
(-0.494086 -0.070121 1.11528e-19)
(-0.450133 -0.0683704 0)
(-0.406812 -0.0666304 -2.39043e-19)
(-0.364111 -0.0649161 -1.25033e-19)
(-0.322012 -0.0632385 0)
(-0.280483 -0.0616157 -1.33334e-19)
(-0.239486 -0.0600593 0)
(-0.198967 -0.0585855 0)
(-0.158863 -0.0572056 -4.32314e-19)
(-0.119098 -0.0559402 2.94697e-19)
(-0.0795867 -0.0547997 0)
(-0.0402259 -0.0538002 3.0785e-19)
(-0.000897493 -0.0529526 -1.57595e-19)
(0.038489 -0.0522665 0)
(0.0780628 -0.0517455 0)
(0.118018 -0.0514087 0)
(0.158546 -0.0512548 -4.88978e-19)
(0.19985 -0.0513021 0)
(0.242151 -0.0515701 -1.64557e-19)
(0.285674 -0.0520496 0)
(0.330694 -0.0527141 0)
(0.377527 -0.0536087 0)
(0.426421 -0.0548143 0)
(0.477509 -0.0563779 0)
(0.530923 -0.0582842 0)
(0.586809 -0.060481 -3.34434e-19)
(0.645296 -0.0628794 0)
(0.706469 -0.065379 -1.68808e-19)
(0.7703 -0.0678487 5.08099e-19)
(0.836652 -0.0700854 0)
(0.905089 -0.0717345 0)
(0.975271 -0.0720994 -3.46165e-19)
(1.0447 -0.0699671 -3.51683e-19)
(1.11724 -0.0619238 3.57152e-19)
(1.17431 -0.0393574 3.68865e-19)
(-0.00858164 -0.0270124 -2.81392e-18)
(-0.0193454 0.0046771 -1.08229e-18)
(-0.0320539 0.0310624 -3.90916e-19)
(-0.0467638 0.0534996 -1.40296e-19)
(-0.062361 0.0729569 0)
(-0.0785355 0.089806 2.03254e-19)
(-0.0954444 0.104224 -9.28859e-20)
(-0.113287 0.116389 0)
(-0.132201 0.126555 -8.21409e-20)
(-0.152263 0.135034 0)
(-0.173497 0.142164 1.50351e-19)
(-0.19589 0.148266 0)
(-0.219409 0.153621 6.99103e-20)
(-0.244011 0.15846 1.35396e-19)
(-0.269655 0.162967 -1.31427e-19)
(-0.2963 0.167287 0)
(-0.323904 0.171527 -1.24678e-19)
(-0.352419 0.175767 0)
(-0.381786 0.180059 0)
(-0.411926 0.18442 -1.17058e-19)
(-0.44273 0.188822 0)
(-0.474057 0.193174 -4.4984e-23)
(-0.505748 0.197314 0)
(-0.537642 0.201033 0)
(-0.569626 0.204099 -1.06426e-23)
(-0.601672 0.206322 -1.04718e-19)
(-0.633807 0.207747 -1.02078e-19)
(-0.665991 0.208692 -9.94958e-20)
(-0.698005 0.20938 0)
(-0.72966 0.209872 -1.88273e-19)
(-0.76084 0.21016 0)
(-0.791452 0.210174 -8.93041e-20)
(-0.821458 0.209751 0)
(-0.850955 0.208612 0)
(-0.880312 0.206477 8.32407e-20)
(-0.909945 0.203696 0)
(-0.939868 0.201071 -7.95679e-20)
(-0.969775 0.198705 -6.48572e-23)
(-0.999494 0.196418 1.52632e-19)
(-1.02904 0.194121 -1.49524e-19)
(-1.05845 0.191832 0)
(-1.08776 0.189557 0)
(-1.11696 0.187295 -7.053e-20)
(-1.14608 0.185043 0)
(-1.1751 0.182799 -6.81676e-20)
(-1.20403 0.180561 6.70013e-20)
(-1.23288 0.178324 6.58807e-20)
(-1.26163 0.176086 0)
(-1.29029 0.173841 -6.3764e-20)
(-1.31884 0.171585 -6.2762e-20)
(-1.34728 0.169311 1.23434e-19)
(-1.37561 0.167013 -6.08575e-20)
(-1.40379 0.164685 -5.99502e-20)
(-1.43183 0.16232 0)
(-1.45971 0.159911 0)
(-1.4874 0.157451 5.73841e-20)