/*--------------------------------*- C++ -*----------------------------------*\
  =========                 |
  \\      /  F ield         | OpenFOAM: The Open Source CFD Toolbox
   \\    /   O peration     | Website:  https://openfoam.org
    \\  /    A nd           | Version:  11
     \\/     M anipulation  |
\*---------------------------------------------------------------------------*/
FoamFile
{
    format      ascii;
    class       volScalarField;
    location    "3";
    object      gradTy;
}
// * * * * * * * * * * * * * * * * * * * * * * * * * * * * * * * * * * * * * //

dimensions      [0 -1 0 1 0 0 0];

internalField   nonuniform List<scalar> 
5712
(
11352.6
6545.34
18428.3
12065.4
20087.2
14859.1
31562.6
39051.6
41461.8
50672.6
26802.1
23269.1
17033
13483.8
8544.29
5776.88
19125.5
19638.6
16441.8
19358.8
25825.8
23150
29725
24140.5
8040.11
5819.29
4508.93
3346.95
9645.37
7871.5
5832.29
4700.97
17387.5
18118.9
17826.2
15163.6
13983.1
10851.6
10893.7
12354.6
17576.4
17469.4
36740.3
37964.9
26120.6
26875.7
14807.8
12490.5
16189.3
11556
7531.21
7714.22
6101.63
8341.18
3187.09
3786.63
8379.72
11243.8
4973.34
5746.92
9334.18
15348.8
6447.8
10437.5
2467.91
6228.25
2052
4658.94
17380
21447.3
17845.5
21303.1
21288.1
21546.7
21587.4
21211
15132.1
20470.2
15631.2
20254
17537.2
21124.9
17508.5
21058.4
21710.8
20902.6
21608.2
20684.4
13954.6
20538.2
13457.5
20602.1
16872.2
19620.6
21318.5
29479.6
17850.8
22525.7
21108.7
31849.1
16009.3
17334.1
21420.1
28428.9
15844.6
16251.6
21659.4
28256.9
4851.16
6279.33
12317
21214.4
6072.33
6851.91
15989.8
24343.4
7650.59
7710.42
20454.1
27523.9
23893.8
25866.5
20014.8
19141.7
27220.4
26120.5
24513.4
20467.9
17616.5
30908.2
23757.6
23320.1
20611.8
20216.8
35636.2
1909.14
2280.87
4035.66
8947.23
2727.82
3056.71
5652.3
10179.1
4117.78
3477.42
7780.31
11882.1
26043.3
26055.6
23361.7
23287.5
19785.2
18408.8
14887.6
13301.3
10335
14123.8
23622.5
23081
23662.6
23523.3
20400.5
19300.7
16706.8
15066.6
11063.4
14387.7
23321.3
26353
23216
26940.2
22672.4
23618.2
22085.5
23703.7
21044.1
21448
20884.5
20850.5
23015.9
27030
22892.2
26983.8
21413.1
23953.2
21216.9
23875.1
21125.1
21401.4
21109
21380.5
17595.1
16742.4
11303.6
12512.5
17456.6
16277.5
11114.8
12486.4
17855.6
16711.1
11560.3
12600.5
17930.9
16549
11925.1
12625.8
1591.46
1113.16
791.278
944.017
675.801
635.042
2199.78
1377.25
1068.47
1881.65
1550.33
1364.09
2615.85
2277.1
2326.26
3329.94
2791.4
2541.05
25358.2
23372
21905.6
23185.3
21902.7
20782.1
16553
15665.2
15186.6
11107.2
9880.73
9374.81
5059.26
3850.08
3314.27
22827.8
21598
20425.9
23242.1
21644.3
20305.1
17082.3
15048.8
13873
11059.5
9110.78
8323.35
5393.11
3843.61
3137.34
26300.1
25876.5
28546.2
25737.3
29388.7
25777.5
35361.8
27044.8
20436.5
20866.1
20138
18735.7
22943.8
21715.9
22455.4
19228
22189.7
22130.7
20535
22099.1
27544.9
24571.4
27038.9
27414
29290.5
30251.7
22475.6
23304.9
20193.5
19590.1
24546.9
25142.2
16081.4
8401.17
14945.4
9338.3
16312.5
8471.76
14876.6
9261.84
16136.1
8523.22
14876.4
9673.13
14435.2
10135.4
14591.6
10048.3
20812.8
17920.9
20587.6
17833.8
22929.7
20816.1
23053.4
20544.2
20182.9
14920.7
21173.2
14779.3
20974.5
17711.3
21205.8
17497.8
23575.4
20333.8
23558
20056
19915.1
14934
19822.4
14832.9
13183.8
8540.13
11757
7155.89
12333.1
7617.13
11328.8
6650.63
13474.3
9100.98
11925.8
7385.55
13472.7
9453.68
11884.6
7435.74
2433.65
1211.29
4257.62
1972.19
2612.95
1534.11
4551.13
2477.8
3263.81
2414.28
5090.82
3457.11
13074.8
20209.9
9355.54
8928.64
5987.76
19886.8
13911.6
8101.93
8123.37
4833.08
20572.8
16282.6
12969.1
10011
5761.66
592.461
446.905
854.258
494.463
928.057
628.575
1480.55
1102.9
1741.55
1418.1
2458.7
1937.94
20371.6
20071.4
13928.1
13683.1
9066.46
9471.48
7598.22
7288.93
4054.49
3295.07
19017.4
17612
14875.1
13399.8
11645.8
10706.7
8778.78
8279.38
5070.36
5332.7
15149.5
12624.9
15188.3
12249.5
18036.7
15254.9
17926.1
14939.4
12826.6
10781.9
12475.6
10880.6
15156.8
12014.3
15052.7
11983.8
17820.2
15164.3
17632.5
15100.5
13037.7
10579.4
13011.2
10722.7
9941.02
8776.59
6136.73
6922.39
9597.99
8625.72
5821.91
6579.81
10367.2
8945.15
6300.21
7375.22
10631.6
8956.34
6575.86
7491.46
2135.53
1899.7
1579.12
9596.89
5069.09
4133.48
2044.58
2051.73
1831.02
10281.4
5938.73
5032.65
2777.82
3165.27
3263.96
11168.7
7354.82
6567.98
19373.9
18522.7
17819.7
13560.9
13485.7
13385.2
10126.2
10270.9
10385.2
8970.44
8866.09
8729.54
12531.7
9013.13
8185.42
16451.6
15567.8
14909.7
12582.5
12060.4
11728.1
10768.4
10289
9963.16
10713.8
9712.49
9079.31
15176.5
10148.4
9179.63
4376.68
2717.73
2073.72
2015.89
5031.51
3015.05
2212.24
2064.74
4387.91
2704.45
2075.9
2033.1
5146.56
3081.05
2252.57
2079.49
4345.71
2648.76
2054.08
2000.18
5244.44
3111.5
2279.52
2046.59
5694.98
3332.8
2367.1
2173.12
5882.16
3481.49
2465.12
2276.23
4663.77
2842.99
2134.25
2014.24
3549.94
2350.9
1897.14
1935.79
3966.47
2499.3
1950.19
1844.48
3179.39
2175.03
1804.16
1846.2
5125.22
3099.91
2268.58
2129
3766.89
2478.96
1958.26
2008.52
5381.53
3271.03
2360
2203.71
3854.6
2568.22
2004.92
2042.39
3081.26
2219.97
1837.15
1897.35
1599.87
1609.01
1545.08
1774.87
3071.5
2195.52
1827.92
1890
1697.19
1634.69
1554.98
1785.22
3134.45
2176.3
1821.62
1888.53
2028.5
1730.89
1591.64
1833.22
3032.3
2077.93
1760.51
1917.32
2304.22
1791.11
1631.53
1810.76
2677.57
1967.49
1694.67
1812.2
3.22273
1101.31
1157.08
344.092
-1903.02
807.693
984.865
377.023
265.787
1186.02
1187.72
365.736
-1552.45
904.222
1012.99
386.305
753.893
1334.87
1240.32
365.871
-968.241
1065.24
1057.86
392.841
1338.78
1506.66
1304.19
400.676
-370.141
1238.25
1116.54
412.188
1696.43
1655.99
1381.25
477.345
-278.646
1359.61
1170.03
428.947
1822.35
1807.75
1423.95
449.678
-758.707
1464.49
1263.39
457.406
1773.21
1740.49
1393.04
450.169
-775.067
1415.05
1217.77
440.831
1822.42
1855.22
1457.66
415.804
-855.149
1508.6
1298.89
461.623
1872.94
1908.11
1506.62
428.216
-746.6
1563.41
1340.92
475.42
2055.56
1661.62
1198.44
720.293
240.056
2031.53
1658.3
1199.31
721.202
240.374
2080.43
1674.15
1204.81
723.35
240.963
2060.65
1674.37
1207.88
725.405
241.634
2125.57
1692.07
1213.11
727.227
242.105
2095.72
1693.78
1218.04
730.389
243.139
2131.25
1716.45
1231.56
737.396
245.3
2182.92
1749.4
1251.03
747.465
248.404
2173.71
1713.96
1225.16
733.293
243.96
2322.6
1740.89
1233
736.308
244.802
2182.48
1708.18
1219.28
729.901
242.872
2318.2
1731
1226.52
732.877
243.726
2195.82
1734.03
1237.32
739.634
245.926
2365.52
1760.32
1244.07
742.031
246.578
2245.09
1765.91
1255.62
749.025
248.822
2417.71
1788.69
1259.92
750.15
249.093
2113.32
1669.68
1198.34
719.556
239.778
2223.8
1678.66
1198.56
719.132
239.611
2136.34
1679.54
1203.07
721.773
240.425
2241.98
1686.06
1202.16
720.835
240.112
2182.64
1696.07
1210.55
725.259
241.443
2281.97
1699.53
1208.61
723.9
241.01
2260.16
1715.24
1218.14
728.675
242.432
2329.75
1714.11
1216.02
727.457
242.041
2334.42
1725.19
1222.47
730.716
243.037
8792.48
13435.9
9276.13
13769.2
10004.6
14226.7
10552.3
14572
10234.4
14136.5
9641.31
10833.6
9596.4
11253.2
9728.99
10795.6
9915.76
10954.9
7743.24
1321.94
281.347
62.8459
11.0918
8597.96
2441.56
590.862
133.549
23.5642
7856.36
1316.23
277.945
61.8265
10.8801
8713.11
2440.12
587.926
132.206
23.1215
7991.72
1319.4
276.025
61.096
10.725
8839.52
2446.03
585.709
131.146
22.894
7997.26
1291.21
267.513
59.0275
10.3512
8815.02
2414.44
575.651
128.608
22.4199
7665.76
1206.52
249.335
55.1601
9.69187
8425.65
2310.99
552.554
123.756
21.6011
6947.09
1137.17
242.637
54.54
9.65405
7104.59
2041.84
500.828
113.968
20.0751
7144.55
1150.47
242.545
54.1761
9.55882
7463.78
2140.67
520.475
117.514
20.5924
6881.67
1137.59
243.924
54.9699
9.74027
7001.16
2001.61
491.535
112.22
19.8231
6872.4
1131.68
242.534
54.6905
9.68366
7029.45
1996.18
489.09
111.949
19.7455
32517.3
45974.1
44950.1
31583.7
18670.8
19625.5
27538.7
28712.1
21487.9
24038.5
34125
46433.6
43087
56969.4
28161.9
32049.1
22142.7
23618.2
12030.4
13176.4
4954.8
3331.92
1000.86
797.544
888.808
790.725
938.938
4914.54
4934.61
3022.93
4272.29
4151.42
1848.08
2500.49
2306.82
1556.27
1779.73
1481.12
4413.75
2489.08
1664.55
1484.4
1840.86
1611.58
1292.07
1236.95
1180.26
1049.12
1380.88
1255.45
4582.61
2850.05
3248.76
2133.29
1792.8
2454.92
1319.83
1069.89
1439.25
10170.2
10464.5
10910.3
12562.8
21349.2
7455.21
8719.51
9743.16
11171.9
13217
2642.06
3798.17
4696.38
5320.35
5646.9
2119.15
3074.02
3825.51
4345.37
4612.61
2358.29
3412.25
4234
4796.53
5083.12
2102.42
3051.91
3798.36
4312.45
4575.13
2486.48
3588.61
4446.03
5035.37
5338.02
10425.7
10926.1
11017.7
11979.8
19324
10435.5
10748.7
10644.7
11126.3
12896.4
7009.33
8445.38
9285.69
10096.5
11017.2
9325.01
9954.48
9879.74
9963.36
10314.8
9048.83
9731.12
9605.05
9497.23
9576.36
4637.6
6202.37
7244.3
7939.45
8333.74
5991.15
7517.8
8398.46
9012
9444.11
5593.49
7115.74
7973.36
8481.49
8757.22
3987.7
5485.6
6531.7
7215.94
7572.09
4482.37
6015.46
7019.53
7651.26
7976.91
3816.38
5288.01
6324.29
6994.55
7333.57
9551.79
10364.4
10768.2
12006.2
19598
5973.08
7569.19
8650.08
9625.61
10580.9
4239.22
5792.15
6887.44
7645.25
8081.11
3822.48
5307.96
6396.67
7160.24
7592.83
4623.9
6217.29
7350.43
8205.32
8785.53
4119.36
5672.31
6820.04
7668.04
8189.09
3363.25
4746.58
5801.99
6556.65
6979.29
3234.59
4587.34
5612.26
6322.49
6701.07
3097.09
4407.5
5390.82
6049.66
6384.33
2767.65
3970.67
4891.91
5517.54
5836.92
3581.6
5015.16
6061.39
6764.1
7132.44
3279.24
4640.3
5660.18
6356.31
6722.12
9650.92
10229.9
10721.2
12247.5
20531.2
6589.32
8032.87
9143.9
10442.6
12036.4
7618.86
9092.97
9989.48
11333.7
14026
5246.99
6901.99
8136.51
9229.97
10139.7
4525.41
6139.87
7339.23
8286.73
8936.5
5902.54
7524.41
8679.42
9779.36
10874.2
3432.8
4836.41
5897.84
6648.5
7064.63
2818.02
4036.08
4971
5612.89
5945.83
3717
5185.4
6277.69
7053.71
7495.54
17803.3
11804.5
18355.8
13086.3
23826.8
33905.2
24876
33719.1
18895.1
20033.5
16188.4
19321.8
21519.9
20520.8
27295.6
22458
13684.3
12725.5
6703.13
5693.83
14928.6
13584.7
7706.83
6265.83
18438.7
19958.4
18945.2
17327.5
19260.9
12690.8
10674.7
12308.8
17448.1
17424.9
36155
37828.6
25362.6
26665
15349.6
12603.1
16805.3
11659.9
8135.88
7858.72
13313.2
14685.3
5574.95
6062.68
14673.9
16678.3
6963.81
7666.49
14037.1
19515.5
8157.08
12524.7
2859.93
6943.46
2129.77
4798.5
17660
20231.4
17591.9
20589.2
19347.2
19666.3
20345.3
20151.7
15993.1
20260.1
18135.2
19974.1
17301.2
20741.3
17419.6
20934
21066.8
20358.2
21417.3
20515.3
14189.3
20399
13487.6
20549.7
17711.7
20854.9
21530.1
29851
19279.1
24643
21580.9
32649.3
16384.9
17919.5
21492.1
28586.5
15939.3
16412.5
21669.8
28297.5
18243.4
19725.7
22785.9
33712
18388.7
18844.4
24407.3
34182.3
18173.4
17881.3
26305.5
33979.5
17879.1
18837.8
18992.8
20085.4
29968.9
18130.1
16858.6
20301
18399
34201.1
18911.9
19632.2
19365.8
20844.6
37057.6
11091.6
10191.6
10192.9
13103.9
12135.9
11167.1
10570.2
13484.2
13346.3
11631.1
11071.9
13810.5
17643.4
17074.8
16474.8
16117.1
18887.9
17764.7
15536.5
14048.7
11612.2
14432.5
18637.6
18542.2
19643.2
19868.8
18739.4
17709.2
16902.5
15052.6
11451.1
13981.5
21364.8
24111.6
22213.5
25729.1
20300.5
21284.5
20931.5
22543.8
20482.9
20734.4
19934.9
19703.4
22521.3
26437.8
22741.2
26806.4
20868.9
23387.3
21054.8
23709.2
20818.5
21032.2
21011.5
21269
17435.3
16453.4
11325
12431.3
17329.1
15950.3
11276.4
12438.8
17738.9
16537.9
11545.4
12538.4
17888.7
16492.7
11914.9
12601.6
9362.58
9503.93
4006.37
3699.21
10445.2
10120.1
4490.23
4305.26
10190.5
9578.08
5120.47
4953.03
16933.4
16504.3
16409.3
16537.7
16263.4
15829.2
12164.2
10937.5
6031.22
5002.06
18979.9
18302.8
20126.6
19428.3
15878.1
14798.2
11346.7
9808.97
5555.3
4211.99
21549.6
20568.1
26306.4
23074.6
23921.7
21403.9
32615.2
24708
19694.8
16255.8
21390.5
17006.9
19595.4
16552.4
21487.2
17235.6
20045.9
17847.2
18234.9
17045.6
20752.6
21906.5
25689.3
27001
28139.4
29914.5
21122.2
22823.6
19162.1
19294.7
23023.2
24628.7
13216.7
9597.03
13609.3
9821.09
13506.3
9505.81
13787.3
9663.35
13490.4
9365.9
13785.7
9859.48
13809.3
10166.8
14389.7
10051.7
16966.2
16578.2
18663.1
17002.2
19397.3
18662.3
21164
19339
18380.1
14607.1
17546.4
14474.6
20015.1
17267.6
20919.6
17362.8
22647.6
19723.1
23287.6
19870.7
19022.2
14737
19562.5
14771.3
12773
8947.78
11956.8
7523.55
12275.5
8675.27
11925.8
7439.79
13154
9249.51
11986.3
7555.31
13359.2
9488.35
11899.4
7491.08
12810.9
13178.7
8981.77
8224.14
12979.3
13306.8
8833.79
8152.64
12980.6
12785.7
8601.47
8057.15
15117.2
17762.2
15944
11826.6
8359.23
16511.9
15537.1
17434.5
11952.6
8061.01
18201.7
16238.3
14475.9
12101.7
7365.78
14058.7
15639.2
8269.65
9160.35
13889.2
15164.5
8181.24
9008.34
12925.6
13738.6
7781.89
8056.7
16425.9
15720
14969.9
14610.3
15647.6
16383.2
12234.1
13357.6
7518.24
7455.37
16637.8
15428.3
15131.6
14068.9
13714.2
13425.4
11570.5
11919.9
6874.92
7689.28
14800
12946.6
14856.7
12347.6
16584.5
14274.6
17094
14431.7
12978.7
11337.7
13072.3
12144.8
14949.8
12055.5
14988.2
11994.7
17402.2
14915
17507.4
15029.2
13048.7
10820.9
13000.5
10783.6
10435.9
9575.07
6616.35
7656.28
10733
10296.3
6777.95
8063.13
10563
9301.89
6521.25
7769.9
10687.3
9061.19
6651.52
7616.16
19191.2
19200.4
27238
22684.5
18313.6
18489.5
26075.6
21645.8
16014.2
16827.4
23875
20093.7
15388.4
14974.7
14381.2
14314.6
16878.6
17513.6
15960
16086
21882.2
18423.5
14617.6
14044.1
13686.8
13660.5
14235.2
14748.4
15593.9
15351.8
21533.7
17015
5858.63
3719.34
2694.75
2473.87
6131.17
3875.29
2788.39
2494.32
5729.3
3634.82
2641.93
2450.15
6064.78
3825.67
2748.65
2451.05
5490.12
3465.89
2544.12
2359.84
5956.13
3710.24
2692.4
2356.91
6110.5
3709.04
2650.69
2397.73
6021.16
3612.16
2560.47
2354.32
5260.58
3312.21
2471.94
2290.43
3943
2680.76
2130.25
2142.11
4904.88
3166.38
2384.29
2176.74
3823.95
2685.72
2111.17
2087.84
5454.81
3379.7
2481.74
2307.17
3978.35
2664.11
2105.87
2150.76
5483.37
3364.72
2433.59
2266.31
3921.03
2628.39
2055.58
2091.31
5284.78
3422.17
2513.93
2384.38
4308.74
2981.96
2276.05
2292.17
5111.73
3333.51
2460.52
2343.31
4189.03
2932.83
2249.7
2280.19
4867.42
3189.84
2385.92
2297.54
4102.14
2870.57
2215.22
2278.88
4356.91
2926.45
2240.75
2272.98
3910.72
2764.32
2153.84
2166.5
3636.76
2660.6
2073.95
2079.04
2840.87
2533.58
1831.6
499.04
536.742
2240.51
1669.6
572.674
2890.79
2534.23
1828.82
516.742
739.839
2247.96
1666.14
574.43
2976.99
2516.87
1806.51
488.782
1021.49
2240.21
1643.08
559.907
2950.72
2463.55
1802.67
516.065
1077
2194.81
1620.47
558.168
2665.46
2348.94
1783.17
593.033
497.592
2075.7
1580.24
553.317
2106.72
2096.54
1674.42
544.116
-646.992
1769.6
1481.88
534.068
2306.17
2204.01
1728.1
559.023
-452.371
1900.65
1526.11
540.056
1961.12
2012.32
1611.04
477.178
-826.433
1673.57
1427.61
509.177
1912.05
1958.01
1557.44
449.144
-745.328
1614.85
1382.66
491.165
2427.93
1892.1
1330.48
787.377
260.521
2371.36
1877.1
1326.17
785.896
260.129
2426.6
1884.54
1325.17
784.489
259.614
2360.86
1865.55
1318.6
781.863
258.876
2441.96
1877.9
1318.9
780.911
258.48
2349.1
1852.35
1309.67
777.096
257.403
2305.88
1826.59
1295.45
770.018
255.269
2247.14
1790.95
1275.25
759.86
252.199
2406.82
1857.46
1307.1
774.93
256.666
2545.54
1868.79
1305.04
772.793
255.929
2479.2
1878.52
1315.48
778.636
257.732
2605.99
1884.56
1312.38
776.28
256.954
2349.91
1832.59
1293.99
768.492
254.739
2509.92
1847.09
1293.28
767.016
254.206
2298.51
1800.08
1275.36
759.11
251.911
2467.33
1818.93
1277.14
758.93
251.787
2536.19
1913.84
1335.57
788.908
260.905
2714.89
1933.36
1339.11
789.88
261.144
2541.08
1909.08
1331.84
786.826
260.242
2716.3
1929.16
1336.16
788.274
260.638
2560.32
1902.53
1325.93
783.524
259.193
2723.62
1920.99
1330.55
785.28
259.695
2615.44
1899.76
1320.62
780.383
258.183
2734.63
1909.21
1323.63
781.677
258.552
2674.43
1895.32
1317
778.429
257.573
10999.8
14456.3
11065.5
14474
11207.7
14493.5
11046.7
14340.3
10353.5
13664.4
9650.42
10792.3
9660.15
11190.9
9722.39
10765.3
9911.35
10943.4
8426.83
1399.14
293.254
64.9816
11.4195
9073.49
2559.59
614.766
138.111
24.2719
8397.87
1377.24
287.563
63.5964
11.1566
9040.96
2529.79
607.032
135.967
23.7132
8303.18
1354.7
282.001
62.2807
10.9193
8950.08
2493.66
597.584
133.702
23.3174
8086.32
1301.89
269.856
59.5968
10.4553
8740.47
2423.77
580.525
129.935
22.6648
7647.3
1204.19
249.393
55.2789
9.72349
8288.16
2301.05
553.031
124.191
21.7048
6932.94
1134.32
242.054
54.4346
9.63984
7079.36
2035.06
499.471
113.745
20.0481
7131.23
1147.03
241.942
54.1002
9.55353
7419.8
2131.26
519.23
117.43
20.6007
6870.79
1135.68
243.528
54.8915
9.72848
6985.03
1997.35
490.588
112.038
19.7966
6868.3
1130.99
242.391
54.6614
9.67911
7023.59
1994.72
488.758
111.881
19.7352
32063.1
45661.8
43876.5
30224.1
23664.1
28111.9
22894.9
28010
26459.2
41816.2
28022.7
42798.2
303.77
321.713
361.698
426.191
519.434
646.217
318.934
337.287
378.008
443.079
535.284
657.802
292.284
286.611
311.403
307.69
354.126
354.955
423.566
433.141
522.803
543.711
651.297
675.639
811.914
1022.06
1293.09
1650.63
2061.83
2357.32
813.594
1004.42
1231.26
1484.82
1726.78
1883.52
813.449
1193.79
1500.7
1715.92
1826.79
861.284
1263.51
1587.79
1815
1931.98
967.894
1418.9
1781.86
2035.82
2166.47
1139.6
1668.64
2093.21
2389.68
2542.05
1387.14
2027.19
2538.66
2894.93
3077.9
1721.97
2508.54
3133.23
3567.31
3790.44
853.911
1252.87
1574.64
1800.18
1916.32
902.781
1323.96
1663.28
1900.9
2023.2
1011.21
1481.69
1859.95
2124.45
2260.5
1184.18
1732.69
2172.31
2479.14
2636.86
1428.49
2085.63
2610.01
2975.28
3163.05
1751.39
2548.6
3181.05
3621.08
3847.83
782.747
1148.88
1444.46
1651.79
1758.6
767.568
1126.66
1416.61
1620.02
1724.82
833.768
1223.35
1537.58
1757.82
1871.23
823.843
1208.85
1519.45
1737.18
1849.29
947.763
1389.7
1745.54
1994.6
2122.73
949.995
1393.02
1749.77
1999.47
2127.92
1132.79
1659.13
2081.74
2376.89
2528.56
1158.36
1696.5
2128.5
2430.11
2585.04
1396.48
2041.5
2557.11
2916.11
3100.32
1452.14
2122.38
2657.69
3030.02
3220.9
1736.24
2530.6
3161.44
3599.05
3823.41
1800.96
2624.3
3277.16
3729.03
3960.19
2155.26
3122.91
3884.79
4414.18
4688.07
2694.97
3869.81
4784.82
5425.86
5765.06
3369.07
4763.42
5835.55
6607.99
7041.72
4210.81
5799.14
7006.3
7938.74
8536.6
5102.31
6770.6
8032.78
9126.37
9980.6
5714.52
7393.83
8669.16
9874.39
10934.8
2158.35
3125.03
3886.27
4416.66
4692.11
2649.77
3807.88
4711.96
5346.55
5682.32
3221.24
4579.05
5629.05
6379.66
6792.07
3840.12
5379.5
6559.58
7432.12
7942.99
4408.2
6076.31
7347.67
8330.22
8952.61
4767.93
6504.84
7827.03
8882.19
9585.91
306.838
331.023
377.695
449.567
551.07
687.053
322.063
346.766
394.173
466.384
566.09
695.99
295.401
289.85
320.919
317.62
370.603
372.271
447.952
459.085
556.152
578.862
695.881
723.768
861.206
1075.56
1343.58
1688.16
2081.52
2362.82
857.697
1050.93
1274.83
1519.36
1748.13
1890.6
821.69
1205.97
1516.15
1733.71
1845.79
886.356
1300.65
1634.94
1869.34
1990.09
1011.03
1482.93
1863.32
2129.88
2267.15
1202.77
1762.78
2213.42
2528.92
2691.36
1472.98
2155.89
2704.06
3087.46
3284.92
1833.45
2677.32
3352.19
3824.11
4067.71
862.332
1265.34
1590.49
1818.46
1935.87
928.339
1361.89
1711.52
1956.6
2082.82
1054.85
1546.61
1942.71
2220.18
2363.06
1247.24
1826.86
2292.82
2618.95
2786.92
1512.15
2211.27
2771.73
3163.78
3365.89
1855.66
2706.5
3385.97
3861.49
4107.47
791.122
1161.25
1460.13
1669.81
1777.85
776.27
1139.51
1432.87
1638.72
1744.78
859.374
1261.24
1585.62
1813.13
1930.34
850.555
1248.35
1569.51
1794.78
1910.84
992.16
1455.53
1829.2
2091.1
2225.99
996.644
1462.18
1837.63
2100.8
2236.32
1198.67
1757.22
2206.91
2521.78
2683.86
1228.47
1800.95
2261.86
2584.55
2750.63
1486.99
2177.29
2731.69
3119.4
3318.95
1547.72
2266.22
2843.18
3246.52
3454.05
1858.09
2715.42
3401.63
3881.1
4128.14
1932.87
2825.23
3539.39
4037.98
4294.59
2291.17
3331.83
4159.78
4740.3
5042.36
2844.91
4105.8
5102.07
5808.19
6184.16
3514.91
5002.22
6167.23
7017.49
7497.02
4326.11
6001.05
7300.36
8314.78
8964.6
5170.3
6901.21
8232.45
9391.41
10291.9
5736
7438.32
8739.37
9969.92
11049.4
2279.71
3311.03
4130.46
4705.72
5005.85
2779.22
4009.67
4981.04
5668.93
6034.61
3344.65
4776.08
5897.28
6706.17
7152.2
3940.49
5544.93
6790.55
7718.76
8263.02
4472.27
6185.61
7503.96
8527.82
9176.18
4789.7
6542.85
7882.19
8952.74
9666.44
4935.13
3330.37
1064.27
852.695
962.594
851.764
1008.68
4560.43
4425.03
2942.25
3694.93
1898.44
2452.88
1628
1787.54
1536.84
4254.51
2501.03
1736.73
1562.08
1902.23
1677.74
1354.62
1313.33
1274.35
1138.12
1466.18
1339.39
4524.9
2854.81
3212.7
2164.09
1844.65
2474.01
1390.21
1146.18
1513.27
10166.6
10518.6
11016.9
12738.8
21676
7469.07
8769.11
9832.71
11305.6
13393
2820.67
4081.29
5079.27
5783.54
6155.48
2271.5
3308.87
4135.43
4713.58
5012.93
2563.96
3733.61
4663.51
5311.79
5646.29
2271.19
3312.48
4142.75
4722.09
5020.79
2682.11
3896.91
4860.88
5535.18
5885.41
10169.3
11543.3
12477
14249.4
22940.3
10085.5
11691.6
12837.8
14429.7
17073
7083.39
9090.03
10607.5
12040.4
13382.9
8931.78
10974
12215.8
13498.4
14605.2
4887.94
6808.04
8265.47
9330.74
9947.75
6123.87
8201.04
9736.47
10939.2
11730.3
4254.77
6039.22
7412.27
8384.33
8911.55
4643.71
6538.54
7981.5
9008.1
9573.09
4035.42
5762.22
7097.14
8033.27
8530.92
9443.22
10740.3
11682.8
13453.3
22022.4
6138.32
8076.1
9567.54
10928.9
12154.2
4501.39
6326.01
7730.37
8761.69
9362.36
4072.21
5767.62
7085.94
8049.72
8602.22
4857.14
6706.99
8135.15
9256.71
10005.8
4334.01
6070.85
7421.67
8449.83
9081.8
3547.44
5055.46
6238.68
7101.79
7588.59
3459.96
4966.47
6149.2
6992.18
7447.89
3374.07
4872.55
6049.11
6870.7
7299.76
3021.06
4378.42
5450.47
6199.3
6588.83
3853.09
5510.36
6799.72
7712.11
8203.54
3531.07
5072.07
6279.48
7134.19
7592.14
9640.97
10399.1
11059.8
12795.2
21543.9
6643.52
8184.74
9407.1
10822.4
12518.7
7660.54
9395.08
10597
12260.4
15289.1
5366.61
7153.65
8540.6
9780.35
10794
4699.94
6474.09
7853.12
8964.6
9720.16
6044.32
7916.99
9376.98
10772.1
12081.9
3643.19
5195.63
6412.04
7294.85
7789.01
3036.87
4391.45
5460.94
6213.06
6608.79
3947.34
5596.1
6882.39
7826.72
8369.28
10508.3
9870.73
8766.87
7250.01
5231.13
2038.85
18151.8
18502.9
21044.4
21684.2
17848.6
18972.1
20167.5
19593.5
14857.8
18159.3
15516.1
18723.9
17820.1
16091
24751.5
17492.4
17710
19911.9
20321.5
16939.3
18044.8
19328.6
18942.7
14814.9
21929
15392.6
21858.3
18008.3
19520
26567.1
16770.8
16865.6
18486.3
18663.1
16289.3
17776.2
18219
18308.1
17017.1
19476.6
17772.1
19513.5
19580.1
21489
23999.2
16111
16224.1
17236.1
17262.1
15948
17669
17131.8
17484.9
16017.7
17104.6
16749.5
16705.5
17988.5
19433
20857.3
15411.5
15557
16411.2
16357.2
15730.4
17608.9
16447.8
16981.9
15231.4
14207.3
15991.2
13679.7
16629.2
16510.8
17348.8
15123.2
15309.2
15876.5
15792.2
15417.1
16988.5
16021
16475.8
14598.2
12290.8
15175.1
12076.2
15545
14622.3
15795.9
21036.3
20257.6
22026.8
23101.1
19589.3
19630.7
20579.8
19714
18645.8
13815.7
18635.5
13915
16572.2
15102.7
18097.9
19925.1
19369.9
20423.6
21121.2
18989.3
19187.8
19475.8
18753.9
17397.5
13450.5
17411.1
13564.6
15291.9
13653.6
16852.1
18493.3
18176.3
18525
18851.6
17978
18187
18069.7
17651.8
16660.3
13350.5
16486.2
13104
14812.9
12565.4
16744.2
17201.4
17031.8
17129.7
17264
16914.6
17066.3
16994.9
16673.5
15945
14040.5
15861.7
13728.9
14428.1
12810.7
17366.4
16610.5
16506
16407.2
16459.4
16243.5
16387.4
16402.2
16215
15943
15397.2
15892.4
15265.1
14716
13505.8
18241.2
16190
16091.2
16016.4
16042.6
15868.4
16187.5
15983.3
15924.7
15986.3
16254.8
15996.1
16177.7
14943.2
14164.6
19128.8
11166.9
6335.82
18421.3
12072.4
20107.9
14847
31589.8
39065
41510.9
50697
26850.1
23269.6
17040.3
13508.9
8287.27
5513.05
19128.5
19640.9
16440.6
19359.8
25838.5
23155.5
29733.2
24144.7
7875.1
5704.43
4357.14
3246.43
9618.85
7862.13
5830.92
4714.05
17383
18114.5
17824.8
15164.1
13979.1
10854.6
10894.7
12356.1
17577.9
17471
36747
37969.5
26123.9
26878
14808.6
12491.9
16190.7
11557.3
7532.32
7715.28
5992.9
8208.27
3101.94
3693.04
8381.33
11255.4
4987.03
5762.83
9335.29
15354.7
6453.7
10445
2469.23
6231.13
2052.46
4660.04
17381.1
21448.4
17846.9
21304.1
21290.8
21548.2
21589.7
21212.2
15133.9
20471.4
15631.4
20254.9
17538.4
21125.8
17509.5
21059.2
21712.6
20903.4
21609.3
20685
13955.9
20539.3
13458.5
20603.2
16874
19624.2
21320.2
29482
17852.3
22529.4
21110.3
31851.9
16011
17336.7
21421.7
28431.1
15846.3
16253.7
21660.9
28259
4771.71
6201.12
12149.4
21031.4
6077.63
6855.62
16004.5
24361
7652.96
7712.42
20460.7
27530.7
23893.9
25867.3
20014.5
19142.8
27224.2
26121
24513.3
20467
17617.1
30912.2
23758.5
23320.6
20612.4
20218.3
35639.5
1869.41
2250.01
3952.4
8859.6
2732.06
3060.73
5663.16
10188.2
4119.71
3478.56
7783.89
11884.3
26043.5
26055.6
23361.6
23287.5
19784.6
18408.5
14888.4
13302
10336.8
14125
23622.9
23081.1
23662.9
23523.5
20400.9
19301.1
16707.9
15067.4
11064.5
14388.6
23321.9
26353.2
23216.6
26940.5
22672.9
23618.3
22086
23703.8
21044.9
21448.6
20885.2
20851
23016.4
27030.2
22892.6
26983.9
21413.4
23953.2
21217.1
23875.1
21125.8
21401.8
21109.7
21381
17596.1
16743.1
11304.4
12513.1
17457.6
16278.2
11115.7
12487.1
17856.5
16711.8
11561
12601.1
17931.7
16549.6
11925.7
12626.4
1569.37
1095.77
776.803
939.312
670.292
628.495
2205.97
1380.6
1070.06
1887.62
1554.21
1366.46
2616.44
2277.87
2327.12
3330.99
2792.83
2542.47
25358.3
23372.3
21906
23185.5
21903.3
20782.8
16553.3
15665.9
15187.4
11107.9
9881.56
9375.74
5059.93
3850.86
3315.01
22827.9
21598.3
20426.3
23242.4
21644.8
20305.8
17082.8
15049.4
13873.7
11060.1
9111.41
8324.03
5393.59
3844.07
3137.75
26304.5
25877.8
28549.3
25738.5
29402.4
25782.9
35373.9
27049.6
20264.4
20814.2
19936
18673.3
22914.2
21688.6
22422.3
19201.3
22184.7
22126.5
20535
22097.5
27528.6
24556.9
27039.8
27414.3
29294.1
30253.7
22473.9
23304
20192.7
19589.2
24539.8
25138.9
16086
8406.73
14944
9345.75
16294.2
8467.01
14861.2
9258.27
16124.3
8518.76
14866.2
9668.57
14429.4
10131.9
14588.7
10046.1
20811.2
17920.6
20586.6
17833.5
22931.7
20817
23055.2
20544.8
20177.8
14919.5
21166.5
14777.8
20974
17711
21205.3
17497.4
23576.7
20334.1
23558.6
20056.1
19912.1
14933
19820.5
14832
13180.8
8537.78
11755.4
7154.69
12329.9
7614.81
11326.9
6649.3
13472.1
9099.01
11924.5
7384.53
13471.1
9452.2
11883.5
7434.89
2421.32
1195.52
4243.77
1954.04
2613.43
1535.19
4551.05
2478.64
3262.98
2414.17
5089.34
3456.53
13075.5
20211.1
9355.21
8927.2
5986.35
19887.7
13912
8101.87
8122.33
4832.17
20573.5
16282.6
12968.1
10009.5
5760.51
574.54
425.079
835.279
486.94
929.464
628.345
1480.73
1102.13
1741.86
1418.8
2458.65
1938.45
20371.9
20071.4
13928
13682.7
9066.15
9471
7597.62
7288.7
4054
3295.04
19017.8
17612
14875
13399.6
11645.2
10706.2
8777.96
8278.95
5069.63
5332.26
15149.2
12624.6
15188.1
12249.2
18037.1
15254.9
17926.4
14939.4
12825.9
10781.4
12474.8
10880
15156.6
12014
15052.4
11983.5
17820.3
15164.3
17632.5
15100.3
13037.1
10578.9
13010.6
10722.2
9940.15
8776
6135.99
6921.75
9597.04
8625.13
5821.11
6579.17
10366.5
8944.6
6299.57
7374.6
10630.9
8955.83
6575.28
7490.91
2097.93
1868.17
1553.85
9545.26
5023.02
4089.17
2041.42
2050.28
1831.04
10277
5938.51
5032.91
2778.58
3165.84
3264.41
11168.7
7355.44
6568.71
19373.8
18522.6
17819.7
13560.5
13485.3
13384.9
10125.6
10270.4
10384.7
8970.28
8865.89
8729.35
12531.3
9013.25
8185.68
16451.5
15567.7
14909.7
12582.3
12060.2
11727.9
10768.1
10288.7
9962.97
10713.5
9712.3
9079.2
15175.6
10148.2
9179.63
4377.37
2717.87
2073.92
2015.34
5030.41
3013.53
2211.57
2063.73
4386.76
2703.97
2075.56
2032.89
5145.95
3080.82
2252.38
2079.31
4344.47
2648.28
2053.77
1999.97
5243.21
3111.08
2279.26
2046.39
5693.74
3332.36
2366.85
2172.94
5881.21
3481.1
2464.9
2276.07
4662.77
2842.54
2133.99
2014.05
3549.29
2350.53
1896.91
1935.61
3965.51
2498.85
1949.92
1844.3
3178.71
2174.64
1803.92
1846.03
5124.28
3099.48
2268.33
2128.82
3766.29
2478.62
1958.04
2008.35
5380.76
3270.66
2359.79
2203.55
3854.08
2567.91
2004.73
2042.23
3080.82
2220.56
1837.9
1897
1598.07
1608.7
1545.65
1773.76
3070.68
2195.09
1827.59
1889.8
1696.5
1634.4
1554.73
1785.14
3133.6
2175.88
1821.33
1888.35
2027.88
1730.56
1591.4
1833.09
3031.53
2077.53
1760.24
1917.13
2303.59
1790.76
1631.3
1810.59
2676.93
1967.12
1694.43
1812
3.71901
1101.06
1157.89
344.132
-1900.59
806.376
984.584
376.869
265.132
1185.92
1187.54
365.729
-1553.25
904.333
1013.02
386.341
753.447
1334.64
1240.16
365.824
-968.552
1065.09
1057.77
392.82
1338.33
1506.37
1304
400.622
-370.377
1238.01
1116.39
412.143
1695.97
1655.66
1381.04
477.282
-278.858
1359.33
1169.85
428.891
1821.96
1807.44
1423.76
449.624
-758.842
1464.21
1263.21
457.349
1772.77
1740.17
1392.84
450.114
-775.224
1414.76
1217.59
440.773
1822.07
1854.94
1457.49
415.759
-855.256
1508.35
1298.72
461.57
1872.64
1907.87
1506.47
428.176
-746.695
1563.19
1340.77
475.373
2053.98
1660.86
1198.1
720.14
240.011
2029.77
1657.35
1198.85
720.99
240.31
2080.37
1674.06
1204.75
723.325
240.956
2060.55
1674.29
1207.83
725.386
241.632
2125.47
1691.99
1213.05
727.202
242.099
2095.6
1693.69
1217.99
730.366
243.136
2131.12
1716.36
1231.51
737.369
245.293
2182.79
1749.31
1250.97
747.437
248.397
2173.57
1713.87
1225.1
733.266
243.953
2322.43
1740.79
1232.94
736.28
244.794
2182.34
1708.09
1219.22
729.874
242.865
2318.03
1730.91
1226.46
732.849
243.718
2195.67
1733.94
1237.27
739.605
245.918
2365.36
1760.22
1244.02
742.001
246.569
2244.96
1765.82
1255.57
748.996
248.814
2417.55
1788.6
1259.86
750.121
249.084
2111.7
1669.03
1198.07
719.436
239.742
2222.24
1678.12
1198.33
719.039
239.588
2136.32
1679.46
1203.02
721.752
240.421
2241.99
1685.97
1202.11
720.82
240.114
2182.54
1695.99
1210.5
725.235
241.438
2281.88
1699.44
1208.56
723.879
241.008
2260.02
1715.15
1218.09
728.649
242.425
2329.61
1714.02
1215.97
727.432
242.035
2334.25
1725.1
1222.41
730.689
243.03
8744.55
13382.2
9278.34
13770.7
10006.1
14227.4
10553.2
14572.6
10235.1
14137
9641.88
10834.2
9597.02
11253.8
9729.53
10796.2
9916.32
10955.4
7732.18
1312.99
279.057
62.3217
10.9994
8582.55
2435.89
589.257
133.168
23.4949
7853.99
1316.79
278.05
61.8429
10.8822
8711.52
2439.52
587.721
132.148
23.1103
7991.17
1319.45
276.032
61.0942
10.7242
8839.1
2445.83
585.632
131.121
22.8888
7997.3
1291.22
267.511
59.0252
10.3505
8815.05
2414.39
575.625
128.598
22.4176
7666.02
1206.55
249.338
55.1599
9.69168
8425.87
2311.02
552.552
123.753
21.6002
6947.44
1137.22
242.648
54.5421
9.65438
7104.94
2041.94
500.847
113.972
20.0756
7144.87
1150.52
242.553
54.1774
9.55897
7464.1
2140.74
520.488
117.515
20.5925
6882.02
1137.64
243.936
54.9724
9.7407