/*--------------------------------*- C++ -*----------------------------------*\
  =========                 |
  \\      /  F ield         | OpenFOAM: The Open Source CFD Toolbox
   \\    /   O peration     | Website:  https://openfoam.org
    \\  /    A nd           | Version:  11
     \\/     M anipulation  |
\*---------------------------------------------------------------------------*/
FoamFile
{
    format      ascii;
    class       volScalarField;
    location    "3";
    object      gradTz;
}
// * * * * * * * * * * * * * * * * * * * * * * * * * * * * * * * * * * * * * //

dimensions      [0 -1 0 1 0 0 0];

internalField   nonuniform List<scalar> 
5712
(
6974.71
22932.6
5527.54
23524.7
4158.23
24367.5
6586.39
37668.8
8102.16
51815.6
8029.79
37678.7
7733.23
31233.5
8035.82
27883.5
4859.83
2982.61
12993.6
7677.77
4773.3
2570.14
14273.5
7083.26
5287.29
3796.35
16973.1
11853.4
3995.27
2839.7
16701.6
12050.2
9364.65
3951.3
8060.56
3575.68
3681.03
8698.14
32646.2
8863.83
11667
3966.47
42162.6
11471.5
10975.1
3822.42
23240.6
7222.5
11911.2
4165.46
20140.3
6415.24
5417.45
2685.76
8230.22
3185.85
5856.12
3171.61
8039.33
3061.14
7503.85
4262.11
6925.29
2984.43
10356.9
3703.49
3569.73
1240.32
11696.3
8043.45
7269.53
5284.27
13296.4
10925.2
7270.73
6296.9
6808.91
4540.76
9498.02
6264.54
4812.23
3521.68
2470.16
2017.77
4704.36
4066.67
2465.58
2372.13
4570.99
2962.33
2362.42
1498.29
6028.78
3260.3
4465.61
5447.09
8170.21
5803.19
6404.86
9262.39
4018.56
1892.14
2646.64
3135.29
2009.97
827.78
1147.41
1162.76
6986.57
12564.1
4766.43
14062.9
8243.33
12330.5
5886.78
14781.1
9436.22
11214.7
7636.69
14520.5
11601
14139
8462.84
8083.34
8907.35
14098.3
12715.4
12213
12379.1
18001.8
11447.3
8573.57
7245.69
8080.72
12846
14473
12847.7
16825
16061.3
13251.3
12217.9
16656.6
15759.1
11487.3
11137.6
15676.8
15228.6
10247.8
7975.85
9243.51
7939.79
9938.9
8712.22
10542.9
9966.3
14534.5
14703.6
9594.19
8208.89
8917.63
8355.47
9032.28
9336.99
10089
11096.2
13200.3
15002.5
7846.07
6144.43
5420.58
6946.02
10822.4
13277.9
7533.34
11978.8
4514.06
5995.27
6681.77
5480.92
1273.32
4621.6
680.365
1665.06
3858.03
8083.44
1439.01
2811
542.781
3864.83
324.942
1352.98
4396.48
4475.44
4992.06
3048.18
6927.8
5492.88
8149.28
5538.9
962.471
2445.19
2464.01
1364.96
1390.67
1821.58
1987.4
1494.41
10151.1
6129.32
1911
11524.1
6567.35
2141.82
9728.91
6064.34
2030.43
11368.8
6580.73
2139.89
8956.67
5561.48
1818.31
11127.5
6630.26
2208.49
5114.4
2696.98
705.555
6363.55
4162.01
1450.2
7465.8
5146.04
1772.27
8552.05
5496.73
1817.39
11047.2
6834.32
2391.27
6130.44
3371.53
1044.4
5892
4214.5
1581.27
6885.63
5082.29
1854.01
8628.66
6031.55
2143.76
11157.8
6894.77
2432.54
291.297
1985.77
2781.63
4051.07
2104.32
2439.34
5302.55
5060.12
596.526
1041.68
637.173
1085.64
481.736
1412.85
864.801
1856.56
3197.48
1571.89
4065.96
2353.13
2178.66
3784.65
3364.89
973.277
5915.05
1480.56
-1804.18
781.809
1824.91
1379.94
1271.08
1208.14
9949.77
4740.32
2727.76
1751.2
10111
4937.2
3410.6
2200.3
10001.3
5327.49
4963.96
3588.29
3525.94
2598.35
1797.22
1742.56
12524.1
11162.6
5909.99
6154.08
13254.4
12462.5
6540.8
6616.82
5362.77
5545.72
10941.5
9205.15
3549.74
3716.96
2024.29
2278.32
4049.12
4031
2260.81
2410.3
3167.77
3412.32
1820.2
2195.74
4882.09
3559.46
4922.21
3669.65
7585.01
4735.77
7306.9
5084.81
2970.58
2567.89
3120.25
2377.19
1704.05
1625.52
1985.97
1389.95
11986
8785.51
6321.06
6713.56
11943.2
8942.24
6367.64
6682.48
12352.8
9169.65
6460.58
6472.3
13749.7
14578.4
12764.5
8778.34
5296.16
13828.1
13104
12496.9
10643.5
7363.21
12959.4
11940.6
9767.28
7769.3
5186.61
7860.69
7296.17
7580.04
8994.52
7987.02
7072.68
7600.81
8816.77
8139.33
6835.95
7591.48
8592.32
10451.1
7368.66
10031.9
7062.2
8192.91
6767.67
7961.4
7040.22
6996.35
8430.78
8670.07
7528.52
7889.62
6967.05
6984.56
6470.37
6469.1
6629.7
5565.61
8044.92
7047.43
4798.64
4685.86
2796.24
8982.88
6931.57
6261.25
5013.39
3958.92
2440.51
5754.18
4357.25
4745.52
2252.8
1754.06
1014.39
4934.15
3558.9
1741.27
1439.76
4200.24
1931.96
1664.75
893.054
3485.51
3350.14
3273.99
4930.12
4864.07
4792.45
4215.93
6379.49
3438.18
2351.22
2313.4
3293.33
1079.85
554.927
320.7
672.396
5128.89
2134.9
626.024
6038.82
1547.63
409.399
5119.23
2279.81
696.917
5982.15
1598.92
442.611
4656.75
2201.38
566.744
5808.33
1609.52
374.708
4506.37
2236.19
472.08
4298.78
2050.7
468.228
4455.76
2130.61
570.439
4647.75
2175.32
452.498
5730.57
1560.87
232.798
5779.73
2860.78
739.426
5455.15
2704
729.571
5200.31
2569.18
743.957
5189.62
2199.97
532.8
6178.21
1438.03
347.145
1902.03
692.218
136.38
-225.074
788.342
303.83
82.002
-45.8986
2018.2
760.886
195.41
-139.366
998.7
422.886
199.725
93.5273
2174.83
849.98
294.092
-10.2664
1712.96
818.79
336.797
87.4482
1303.27
759.344
308.846
14.6674
1236.16
839.574
520.815
325.196
1808.87
817.138
268.14
-183.123
1564.02
693.838
310.879
-191.758
2147.92
842.426
272.502
-143.283
1954.24
767.493
306.152
-323.385
1452.05
765.805
327.352
-48.2454
1202.5
618.165
339.923
12.2877
1077.68
682.23
425.036
273.163
829.477
527.698
364.567
225.35
2447.97
838.007
131.686
-447.453
2465.28
777.838
173.927
-618.143
2446.65
851.264
155.62
-424.174
2388.79
757.376
183.148
-597.904
2402.52
856.478
233.997
-304.9
2227.33
717.706
227.208
-491.65
2102.34
791.372
324.729
-48.1273
2441.27
804.705
324.075
-575.961
1894.15
711.626
329.547
-131.802
1986.02
551.788
156.655
-422.936
798.311
201.166
45.9843
-89.3052
2039.83
587.432
178.315
-402.301
827.041
216.867
59.3907
-73.5925
2059.2
627.103
224.018
-353.208
833.75
234.303
77.8958
-53.5672
1850.95
591.75
258.195
-279.506
803.851
241.594
106.126
-18.4887
1688.84
588.913
288.406
-162.522
711.659
253.869
145.521
30.261
1184.35
481.407
240.738
-40.712
664.644
334.349
210.966
117.358
1368.77
486.21
232.402
-112.79
670.613
288.482
178.038
73.9915
952.844
469.254
271.445
52.1949
598.893
356.264
238.096
159.378
671.993
429.744
304.603
198.313
502.888
359.165
263.27
206.063
-19.0346
10.3152
10.397
7.58582
6.0001
-2.33473
6.77372
5.85176
4.19847
3.32352
13.3489
28.2026
21.004
14.486
11.294
32.8802
27.1573
18.1216
12.1829
9.43622
49.4164
50.1112
34.4612
23.4401
18.2316
133.693
91.7223
58.6481
39.0837
30.2011
161.58
108.648
69.3665
46.3113
35.8813
233.496
143.977
89.4939
59.2809
45.879
86.9935
73.2376
48.6953
32.8164
25.3695
91.8948
68.8724
44.8471
30.1532
23.3201
59.9988
58.5087
39.6371
26.9471
20.9293
106.678
70.8766
44.7529
29.909
23.0727
112.981
87.6178
57.5861
38.7452
30.0282
122.195
82.4764
52.6357
35.2016
27.2362
185.801
116.036
72.2709
47.8944
37.0448
155.115
95.7769
59.5538
39.4546
30.4645
-36.5179
5.6576
7.7453
5.82867
4.64566
-20.1138
1.87801
3.04666
2.3392
1.88981
-15.3338
16.8618
14.3128
10.1047
7.95877
-12.5467
5.85146
5.34022
3.81091
3.0345
11.2616
29.8345
21.7425
14.9917
11.78
15.8237
19.0206
12.7566
8.54541
6.69555
70.1213
57.374
37.5733
25.4354
19.8625
46.3561
36.1485
23.2
15.5979
12.1892
127.242
74.8649
45.9448
30.4328
23.4928
1487.23
3406.09
1487.12
3362.34
1607.38
3325.18
1918.98
3462.2
2014.77
3587.99
789.002
1261.07
1318.91
2141.99
407.934
605.705
136.473
194.083
7818.71
1862.42
425.513
94.7238
23.4405
2124.85
571.157
151.6
34.3711
7.43773
7750.57
1830.59
417.731
92.1916
22.979
2161.04
637.044
156.645
36.3147
8.98602
7443.94
1744.99
396.522
87.3672
21.7955
2097.53
616.553
151.232
34.8875
8.66376
6871.47
1595.57
361.292
79.5045
19.8328
2043.36
588.192
142.382
32.5503
8.038
5807.01
1340.84
303.651
66.8891
16.7021
1941.18
543.455
130.066
29.5394
7.27044
2790.91
673.731
155.112
34.3985
8.59766
948.148
269.715
63.9824
14.2676
3.50074
4130.51
983.059
224.623
49.5822
12.3766
1396.33
392.121
93.8747
21.3046
5.27799
1644.7
400.287
92.5746
20.6263
5.16371
527.841
156.371
36.818
8.19913
2.02968
567.224
137.186
31.7799
7.10009
1.77712
209.625
55.8653
12.0552
3.41453
0.644772
160.134
514.656
4434.95
-799.902
735.288
788.029
2296.05
2938.67
1838.6
3460.62
2895.2
4470.71
3486.35
4328.47
1813.12
2444.41
1941.12
2302.1
1010.35
1050.47
2277.45
1678.75
496.507
-486.479
-786.225
-944.351
-302.123
12693.7
2962.26
4126.46
2635.4
-212.391
-80.1399
2916.61
-1461.97
-832.227
-1129.49
-575.533
6972.28
3657.41
1217.46
1020.78
3636.8
1991.07
627.342
1370.61
-1530.16
-899.322
677.706
531.087
8597.97
4284.21
5256.45
2826.17
4075.19
4381.31
1519.57
-929.473
897.161
1630.48
1358.17
1195.25
1107.29
884.256
1338.11
1088.48
863.883
619.792
272.069
438.66
368.102
283.492
183.056
64.3962
-434.328
-362.21
-270.127
-165.892
-55.8503
-702.679
-587.054
-438.974
-270.294
-91.1019
-845.248
-707.498
-530.153
-327.051
-110.355
-262.748
-210.095
-147.595
-84.6956
-27.026
9334.4
8269.6
7255.76
6884.06
6627.93
2707.82
2454.79
2362.81
2031.41
1103
3187.11
2583.16
2232.86
1802.64
970.87
2061.63
1710.49
1533.41
1215.81
521.445
-37.2105
23.4345
148.684
169.097
86.152
28.6647
123.297
177.282
163.721
71.4459
2501.6
2123.17
1705.88
1213.45
508.189
-891.8
-437.545
-172.466
-30.5623
7.64278
-663.411
-473.029
-286.927
-137.133
-35.6413
-801.086
-500.546
-260.721
-103.39
-21.8565
-520.395
-432.07
-315.447
-187.608
-61.0168
5242.58
4840.6
4288.57
4091.18
3972.88
2833.76
2266.31
1922.9
1500.37
754.12
1144.93
1056.99
917.097
672.53
270.67
908.441
789.572
647.389
453.07
175.085
3049.4
2482.14
1916.29
1293.95
506.362
1776.36
1523.08
1212.51
815.822
298.679
550.647
466.739
369.757
248.999
92.1239
1215.51
1025.33
794.113
515.984
183.015
-1328.38
-1073.02
-775.786
-464.579
-153.779
-790.805
-644.927
-467.214
-278.133
-91.3268
613.98
539.186
442.505
306.432
115.138
483.803
427.509
352.397
243.75
90.6849
5603.67
4158.9
3668.63
3489.42
3174.84
3291.74
2586.35
2030
1477.35
680.776
3901.95
3241.66
2674.92
2132.59
1069.26
2271.65
1871.71
1479.66
1057.76
470.715
3487.16
2874.86
2219.53
1475.55
552.59
3335.65
2491.47
2063.75
1589.69
691.537
1334.99
1119.35
867.163
567.397
203.541
-824.597
-680.555
-500.185
-302.135
-100.305
799.493
694.079
567.577
394.735
149.43
-26610.3
-43645.9
-22055.3
-35341.8
-23692
-49750.1
-28363
-63157.1
-16842.3
-11504
-18984.7
-11798.7
-15566.4
-9997.4
-19297.3
-10130.8
-21959.2
-16501.3
-32038.6
-23031.3
-18857.2
-14987.8
-26791.8
-20087.4
-15139.1
-15439.8
-12418.7
-11910.4
-14586
-13770.1
-37109
-10235.3
-14094.3
-5253.7
-45448
-12585.9
-12609.5
-4667.09
-27558.3
-8680.28
-14428.3
-5520.83
-24468.8
-7613.17
-11292.7
-4536.32
-14420.3
-5219.2
-10712.5
-4703.19
-12538.7
-4531.63
-11112.3
-5377.27
-10017.7
-3968.73
-12874.5
-4539.12
-4521.09
-1585.79
-9620.38
-6360.08
-8302.74
-5044.07
-8524.1
-6846.01
-7306.19
-5210.07
-8425.26
-4768.02
-9851.93
-6103.81
-5686.73
-3381.99
-3063.65
-1876.44
-4912.8
-3385.06
-2548.64
-1810.46
-5771.09
-3122.23
-3196.25
-1597.66
-7413.29
-3757.46
-4770.05
-5566.57
-9393.87
-6301.46
-6704.91
-9383.59
-5034.42
-2254.62
-2859.68
-3220.28
-2728.93
-1097.44
-1298.19
-1226.43
-11065
-13427.8
-6224.34
-15164.3
-11507.3
-12817.2
-7148.07
-15509.5
-11637.8
-11685.1
-8521.31
-14771
-7999.64
-6480.54
-8719.78
-9650.89
-9618.04
-8900.01
-10213.8
-11794.4
-12633.3
-17929.5
-6091.3
-6233.4
-6754.75
-8167.05
-12802.3
-12730.3
-8876.16
-16132.7
-12397.1
-11802.7
-8740.2
-15895.8
-12345.8
-10453.6
-8161.5
-14836.8
-12218.8
-7316.72
-5832.39
-7471.99
-5960.42
-8305.36
-6683
-9030.27
-7628.66
-13526.9
-12281.5
-6881.22
-5924.49
-6838.95
-5876.16
-7472.97
-6913.55
-8954.71
-8811.82
-12514.8
-12819.1
-6276.61
-5011.4
-4621.54
-6096.11
-7935.67
-11046.5
-6002.85
-10198.2
-4212.23
-5599.3
-6014.15
-4916.21
-773.62
-4017.3
-221.695
-1183.89
-2874.46
-7017.47
-622.508
-1951.2
-356.829
-3573.72
-127.591
-1109.3
-4321.51
-4315.46
-4974.9
-2979.71
-6688.9
-5192.88
-8046.93
-5274.25
-923.54
-2331.13
-2446.16
-1318.73
-1331.53
-1716.3
-1956.98
-1441.77
-5379.59
-1850.79
-7270.21
-2482.07
-5499.77
-1930.85
-7442.79
-2673.8
-5456.5
-1901.27
-7888.59
-3048.2
-3422.42
-954.332
-4218.93
-1625.43
-4725.79
-1839.95
-5661.43
-2149.3
-8323.59
-3322.78
-4374.06
-1315.52
-3834.03
-1918.79
-4593.89
-2213.5
-6209.49
-2734.21
-8610.8
-3260.2
-5932.83
-5585.28
-4406.49
-4367.65
-9873.16
-7566.61
-7979.07
-6633.95
-4087.17
-3623.64
-1661.42
-1222.88
-3846.28
-3785.88
-1518.54
-1607.4
-2838.04
-4549.25
-3413.22
-4913.45
-3758.43
-2381.33
-3062.97
-420.149
-6491.48
-1652.94
2593.35
516.629
-852.297
-200.324
312.722
765.969
-2550.99
-1892.57
-939.18
-598.265
-2690.13
-2001.72
-1366.58
-674.046
-2990.21
-2388.28
-1785.64
-907.442
-1084
-23.576
731.921
1157.57
-4987.56
-5395.25
-3815.4
-3605.55
-6630.87
-6666.48
-5478.8
-4621.48
-2546.45
-2891.04
-3866.67
-4482.21
-2278.35
-1998.8
-926.771
-860.09
-3496.11
-2753.44
-1751.17
-1377.52
-1292.14
-1482.73
-187.904
-546.673
-1748.02
-1322.88
-2557.16
-1974.69
-2790.7
-2421.53
-3968.59
-3238.54
-610.377
-399.417
-1231.24
-789.759
415.598
545.922
-294.302
146.754
-3783.91
-4852.77
-3346.79
-5050.98
-3737.29
-4813.35
-3426.97
-5044.89
-3905.07
-4422.73
-3609.24
-4792.67
-2788.23
-4575.32
-2472.52
-2299.16
-2641.92
-6918.89
-4992.61
-4743.96
-5105.92
-5530.79
-5540.77
-4737.24
-4129.61
-3993.8
-3351.45
-5854.04
-5964.49
-7874.46
-12160.9
-5511.25
-5346.94
-7551.54
-11577.9
-5012.99
-4861.49
-6968.8
-10654.4
-6785.39
-5226.53
-6223.79
-4769.62
-5584.41
-4499.93
-5888.18
-5505.08
-6438.96
-9861.69
-5504.84
-5216.26
-4768.96
-4826.01
-4432.35
-4740.44
-4753.16
-5739.21
-4623.6
-8735.15
-3906.36
-2820.09
-2658.48
-974.315
-5499.64
-4843.65
-4254.41
-3127.57
-2131.85
-833.145
-3288.7
-2697.87
-3191.8
-975.634
-426.124
126.711
-3540.19
-2311.1
-608.385
-345.164
-2680.93
-765.921
-283.049
178.545
-2066.29
-2234.11
-2364.44
-4457.94
-3212.46
-3732.76
-3392.76
-6231.24
-2111.7
-1432.24
-1281.26
-2689.3
222.151
362.012
783.924
57.6187
-4280.55
-1245.57
-8206.71
-861.577
-3988.21
-1334.67
-7970.01
-893.251
-3032.76
-805.937
-7252.08
-720.38
-2872.84
-635.843
-2711.92
-627.495
-3039.35
-927.527
-3300.71
-627.241
-6826.34
-905.422
-4031.32
-780.407
-3812.24
-617.194
-3994.56
-799.742
-4577.87
-701.022
-7165.02
-873.314
-836.764
-168.114
196.845
485.363
-280.524
-41.1713
78.3872
154.925
-824.605
-130.027
218.313
460.515
-190.957
39.8018
89.8401
99.808
-843.962
-85.775
226.171
414.113
-10.273
268.353
420.785
471.464
588.656
525.069
594.13
629.605
1068.62
779.349
610.869
459.613
-369.715
139.231
429.909
727.984
-308.116
195.989
351.172
735.159
-914.376
-69.3591
289.209
611.624
-709.09
68.4172
318.098
899.496
137.231
344.315
462.373
622.664
53.6945
306.115
354.64
534.733
619.653
532.963
456.389
371.524
432.554
417.776
355.974
342.317
-1336.79
-292.763
233.478
788.854
-1676.89
-349.794
104.78
989.143
-1282.94
-252.439
254.177
803.793
-1612.16
-322.844
106.8
977.906
-1194.07
-191.207
214.191
701.431
-1462.53
-271.605
77.2403
893.156
-799.033
-34.2041
203.683
519.096
-1515.35
-230.109
89.2948
1112.16
-748.297
27.8566
231.704
703.813
-1568.01
-269.725
29.6682
699.921
-684.587
-103.342
30.5698
178.641
-1465.24
-230.829
49.9906
702.678
-651.681
-90.543
35.1287
176.861
-1256.86
-155.089
62.4477
683.778
-555.309
-58.7827
50.2473
185.031
-1031.84
-91.9672
49.7417
615.359
-455.341
-26.4368
53.5574
178.836
-757.496
10.0681
100.943
529.249
-238.54
47.3938
73.0725
175.69
-341.302
148.532
247.675
488.601
101.594
227.404
208.676
245.614
-622.931
41.1121
165.637
503.29
-29.7682
145.564
140.388
210.995
-1.0203
262.801
296.454
442.283
232.256
291.405
255.883
259.634
335.836
357.228
304.935
320.583
362.904
336.247
268.769
239.314
110.418
32.8993
14.0606
8.15573
6.09821
46.955
15.8086
7.19324
4.24251
3.17199
130.286
48.3324
24.2761
15.039
11.4727
75.8004
35.1999
19.5905
12.5532
9.66569
161.159
68.0204
36.7047
23.2119
17.7927
192.727
102.467
60.2864
39.2229
30.3324
213.752
118.298
70.3598
45.8172
35.3618
240.267
145.365
89.3647
58.857
45.5255
192.792
89.9225
50.8116
32.6479
25.2345
163.962
79.5173
45.56
29.3223
22.6655
173.915
73.8859
40.5058
25.6742
19.7247
145.021
74.3577
43.6522
28.222
21.8574
207.623
103.258
59.4752
38.3813
29.6192
168.47
89.9522
53.0911
34.4871
26.695
199.953
118.174
72.2555
47.5161
36.7418
166.572
97.6927
59.5589
39.1181
30.2615
119.311
29.0138
11.2951
6.34015
4.69187
55.2639
11.651
4.26954
2.32408
1.68652
129.365
38.0264
17.3842
10.4423
7.86251
58.9178
14.9339
6.51145
3.85225
2.8626
134.306
46.3588
23.4614
14.5311
10.9956
67.5659
25.3606
13.7505
8.79655
6.6875
150.955
65.4997
36.5942
23.2243
17.7188
89.7502
39.3976
22.4276
14.3384
10.9298
129.249
73.4282
44.3482
28.9319
22.3809
-1719.55
-3228.54
-1760.73
-3228.56
-1904.69
-3243.21
-2080.53
-3320.06
-2007.27
-3331.7
-779.923
-1225.62
-1304.44
-2043.84
-388.556
-578.583
-108.756
-164.526
-8208
-1937.56
-439.87
-97.4388
-24.0083
-2206.44
-593.612
-156.993
-35.4256
-7.62712
-8069.93
-1893.13
-429.952
-94.5303
-23.4808
-2249.23
-662.364
-162.087
-37.4011
-9.21591
-7638.41
-1785.99
-405.047
-89.0804
-22.1783
-2176.42
-638.081
-155.857
-35.8167
-8.86418
-6940.31
-1614.37
-365.861
-80.5164
-20.0757
-2091.18
-602.439
-145.632
-33.2305
-8.19045
-5801.45
-1344.65
-305.206
-67.3135
-16.8177
-1949.46
-549.627
-131.823
-29.9493
-7.36972
-2779.91
-671.653
-154.817
-34.3722
-8.59978
-939.248
-268.662
-63.9735
-14.3027
-3.51656
-4114.65
-981.4
-224.676
-49.6643
-12.4103
-1387.44
-392.899
-94.4177
-21.4665
-5.324
-1637.23
-398.714
-92.2843
-20.5809
-5.15719
-519.032
-154.597
-36.5313
-8.16305
-2.02684
-561.262
-135.95
-31.5331
-7.05544
-1.76887
-200.129
-53.7777
-11.6428
-3.3429
-0.632327
224.469
-995.752
-5201.14
903.17
-6273.3
-2747.82
-6070.17
-2776.3
-10987.5
-5847.64
-12322.2
-6524.33
-137.916
-548.335
-861.062
-1014.51
-912.486
-380.253
-225.872
-848.553
-1287.2
-1419.85
-1144.23
-395.642
-117.29
-125.811
-440.424
-443.779
-630.041
-622.85
-608.151
-573.911
-545.505
-518.304
-430.761
-380.151
844.03
2203.98
3570.27
2527.42
2326.3
1121.76
804.328
2316.22
3741.23
4326.47
3606.78
1643.82
-124.399
-105.186
-79.7309
-49.6965
-16.8769
-495.289
-419.538
-318.612
-198.901
-67.6052
-777.72
-658.729
-500.245
-312.291
-106.148
-916.032
-775.604
-588.793
-367.471
-124.887
-823.717
-697.148
-528.907
-329.878
-112.061
-344.701
-292.49
-221.717
-137.746
-46.6076
-203.637
-172.093
-130.387
-81.2477
-27.5886
-766.074
-648.54
-492.287
-307.231
-104.413
-1161.81
-983.349
-746.335
-465.775
-158.303
-1280.76
-1083.36
-821.859
-512.8
-174.28
-1031.4
-871.778
-660.97
-412.298
-140.118
-357.532
-302.754
-229.58
-143.001
-48.5192
-105.863
-89.5861
-67.9616
-42.3866
-14.3987
-113.62
-96.2154
-73.0418
-45.5807
-15.4887
-397.944
-337.208
-256.178
-159.963
-54.3755
-401.034
-339.879
-258.246
-161.274
-54.8245
-569.228
-482.306
-366.377
-228.759
-77.7587
-562.7
-476.739
-362.122
-226.091
-76.8505
-549.404
-465.436
-353.471
-220.637
-74.9822
-518.231
-438.799
-333.097
-207.866
-70.6355
-492.603
-416.976
-316.265
-197.134
-66.9284
-467.431
-395.158
-299.456
-186.603
-63.3572
-388.968
-328.758
-248.466
-154.137
-52.1359
-342.43
-288.9
-218.3
-135.614
-45.9473
751.797
630.045
477.41
299.998
102.879
1955.1
1634.09
1238.15
780.425
269.039
3132.63
2603.71
1978.57
1262.45
443.637
2202.79
1827.18
1392.93
893.792
315.386
2059.07
1712.72
1298.89
817.456
265.382
1023.53
868.792
667.465
420.456
132.757
717.154
600.959
454.512
284.689
97.344
2060.31
1723.86
1303.84
818.166
280.539
3308.84
2758.77
2087.85
1316.61
454.678
3802.37
3158.49
2392.35
1516.69
527.823
3169.86
2633.47
1996.92
1267.43
439.356
1460
1225.29
936.758
596.996
206.539
304.531
711.892
1018.27
1162.4
1047.41
516.843
455.963
1070.97
1491.69
1592.18
1270.91
478.958
249.027
237.179
566.747
550.718
744.187
718.597
701.946
646.551
627.682
530.115
567.339
422.402
-688.437
-1967.04
-3159.33
-1976.16
-1649.86
-380.015
-735.018
-2203.13
-3490.98
-3876.67
-2960.25
-873.538
275.536
233.884
178.009
111.322
37.8742
643.756
546.057
415.303
259.574
88.2874
920.59
780.663
593.58
370.934
126.153
1050.72
890.85
677.251
423.175
143.912
947.023
803.112
610.603
381.509
129.731
469.844
400.346
305.113
190.569
64.7073
412.467
350.036
266.363
166.561
56.6661
968.103
820.853
624.096
390.003
132.641
1347.84
1142.31
868.174
542.413
184.462
1437.9
1218.02
925.388
578.084
196.596
1147.25
971.422
737.866
460.938
156.773
433.805
368.428
280.314
175.115
59.5193
225.327
191.272
145.578
91.0393
30.9726
214.599
182.153
138.626
86.6845
29.4896
512.573
434.854
330.772
206.754
70.3219
498.08
422.555
321.411
200.898
68.3296
672.934
570.785
434.079
271.285
92.2626
649.745
551.06
419.038
261.866
89.0566
634.801
538.484
409.52
255.923
87.0317
584.476
495.582
376.759
235.402
80.0481
567.949
481.98
366.585
229.039
77.8666
479.126
406.141
308.655
192.784
65.5409
514.479
437.339
332.756
207.702
70.5232
382.028
323.95
246.129
153.609
52.1821
-609.462
-507.582
-382.93
-240.31
-82.4752
-1738.75
-1448.33
-1095.24
-690.463
-238.397
-2754.42
-2275.79
-1723.89
-1101.13
-388.651
-1680.39
-1360.07
-1018.18
-648.648
-229.232
-1411.46
-1129.65
-826.889
-504.379
-152.804
-311.564
-225.863
-145.174
-72.6714
-7.71986
-654.138
-547.163
-413.352
-258.866
-88.5508
-1957.91
-1636.87
-1237.67
-776.899
-266.556
-3079.92
-2561.81
-1935.95
-1220.77
-421.974
-3385.79
-2794.89
-2107.52
-1334.26
-464.843
-2565.76
-2101.34
-1575.85
-994.82
-344.256
-737.43
-586.071
-428.592
-266.509
-90.9077
-1383.35
-876.384
-197.41
740.524
1044.16
1328.93
640.881
-10599.5
-1595.51
-3039.62
-1459.71
303.771
-3941.45
895.224
2535.14
1224.3
-5732.65
-2580.94
-369.579
-488.071
-3299.19
-1198.78
-201.379
-972.467
2239.04
1431.6
-464.002
-104.029
-7572.53
-3523.65
-4142.36
-1990.92
-3473.35
-3200.53
-1013.21
1456.33
-309.631
-666.893
-449.152
-411.136
-544.545
-652.161
-538.345
-346.18
-243.308
-192.206
-110.458
-162.602
-128.106
-96.4082
-63.9055
-23.4892
669.868
568.082
431.564
269.296
91.5013
942.148
796.687
603.631
375.909
127.546
1199.19
1014.31
768.913
479.15
162.654
580.794
491.833
371.207
229.15
77.0379
-7680.81
-6985.46
-6440.16
-6704.64
-7192.66
-1027.83
-718.895
-897.17
-1088.37
-789.422
-2139.3
-1597.81
-1432.33
-1303.57
-830.633
-938.159
-629.709
-604.196
-564.032
-261.647
277.492
223.84
145.555
65.2905
11.0563
-3301.49
-2725.31
-2122.98
-1466.76
-600.238
809.532
677.053
498.85
297.425
95.523
2209.39
1810.46
1343.34
830.384
281.931
1100.12
923.638
693.485
427.737
143.712
-4045.28
-3829.68
-3553.8
-3741.37
-4079.68
-1770.93
-1280.39
-1123.71
-991.6
-594.84
-287.066
-249.622
-248.291
-231.008
-118.205
-392.951
-320.474
-268.172
-206.599
-90.4819
-2761.49
-2250.11
-1751.22
-1202.03
-481.757
-1011.6
-828.992
-651.892
-450.013
-171.383
-150.682
-112.353
-88.6711
-67.786
-29.6139
-842.531
-696.148
-534.404
-349.529
-125.844
2001.54
1676.15
1259.86
780.503
263.913
1290.5
1087.83
819.31
506.133
170.42
-389.126
-319.378
-254.801
-179.788
-70.7132
-73.8027
-56.5351
-53.1227
-48.6644
-23.0569
-4633.92
-3278.62
-2958.94
-3052.49
-3098.67
-2563.54
-1926.57
-1494.1
-1123.55
-556.116
-2766.45
-2206.24
-1821.19
-1569.89
-852.455
-1471.22
-1145.78
-891.765
-672.637
-338.447
-2923.44
-2376.43
-1826.85
-1225.39
-467.749
-2211.74
-1456.93
-1235.19
-1062.3
-515.168
-863.695
-705.962
-542.758
-360.332
-132.627
1314.77
1110.7
838.848
519.751
175.456
-236.742
-186.327
-159.296
-129.496
-57.7421
-0.79095
42.9309
105.918
143.817
113.305
11.0106
-18788.2
-16582.7
-15867.6
-18080.3
-13767
-10897.5
-12453
-9462.04
-16222.8
-14176.1
-14945.9
-14019
-13112.2
-11161.6
-13764.9
-15440.8
-13796.9
-12741.1
-14368.5
-11595.4
-9825.32
-10418.3
-8365.82
-14528
-12859.5
-13382
-12149.2
-11583.4
-10831.3
-11137
-12108
-11094.1
-10089.6
-11036.1
-9626.65
-8265.06
-8710.37
-7497.06
-12143.6
-10972.9
-11302.7
-10256
-9828.09
-9096.85
-9308.33
-8440.45
-7939.85
-7128.85
-7556.92
-7123.54
-6388.88
-6482.09
-5947.26
-8717.28
-8780.28
-8223.95
-8266.38
-7328.47
-6621.82
-7331.35
-5392.66
-5153.67
-4595.99
-4794.05
-4771.03
-4320.17
-4286.44
-3969.26
-5766.82
-5742.78
-5510.61
-5363.44
-5013.7
-4528.6
-4879.34
-1940.69
-1871.55
-1664.85
-1723.47
-1763.11
-1649.57
-1572.8
-1468.89
-2190.65
-2176.2
-2047.63
-1940.79
-1885.24
-1730.95
-1845.35
-7283.99
-7194.25
-10754.6
-11582.6
-6887.53
-6136.26
-9454.17
-7707.85
-5844.47
-4522.88
-5808.7
-4479.8
-5856.7
-5590.87
-4539.17
-7287
-6928.26
-9581.01
-10441.3
-6450.39
-5862.37
-8348.52
-7217.21
-5866.6
-4102.52
-5768.78
-4299.08
-5297.17
-5087.67
-4642.76
-6703.58
-6405.97
-8149.16
-8729.1
-6039.46
-5642.8
-7309.97
-6496.25
-4950.38
-4545.39
-4937.89
-4745.78
-4636.43
-4622.01
-4864.33
-5478.79
-5289.44
-6141.59
-6441.72
-5037.35
-4729.5
-5701.17
-5223.7
-4831.59
-4192.6
-4751.71
-4423.31
-4462.09
-4405.96
-4445.68
-3822.75
-3712.15
-4082.2
-4232.25
-3457.06
-3211.16
-3854.96
-3551.57
-3446.88
-3273.61
-3366.31
-3399.35
-3156.96
-3079.22
-3195.86
-1431.46
-1391
-1496.5
-1544.36
-1288.67
-1187.15
-1420.95
-1311.97
-1137.54
-1208.81
-1211.57
-1295.31
-1175.87
-1133.57
-1172.46
6943.01
22458.2
5496.97
23522.5
4142.4
24369.2
6582.29
37676.8
8097.4
51826.8
8013.78
37675.3
7700.21
31216.7
8012.92
27277.6
4852.87
2980.96
12994.4
7677.88
4771.83
2569.96
14276.7
7084.38
5254.16
3770.73
16632.4
11630.7
3975.26
2831.36
16715.4
12066.9
9370.44
3944.83
8060.97
3573.39
3676.43
8705.57
32655
8865.06
11669
3966.51
42172.5
11473.7
10977.3
3823.07
23252.6
7224.68
11914.6
4166
20156.1
6418.08
5363.63
2659.56
8084.15
3131.13
5856.78
3172.06
8052.91
3066.26
7502.93
4262.25
6929.68
2986.53
10365.4
3706.71
3571.79
1241.12
11695.3
8042.77
7269.36
5284.07
13294.9
10924
7270.86
6296.74
6809.01
4540.72
9497.27
6264.25
4812.59
3521.69
2469.82
2017.59
4704.98
4066.8
2465.65
2372.13
4571.74
2962.39
2362.2
1498.1
6029.55
3260.81
4465.77
5447.36
8170.06
5803.46
6404.92
9262.75
4019.82
1892.69
2646.79
3135.47
2010.1
827.871
1147.3
1162.77
6943.2
12558.2
4736.06
14053
8245.15
12326.4
5889.72
14778.1
9436.35
11213.6
7637.38
14519.8
11600.1
14136.9
8462.4
8083.72
8908.03
14096.4
12714.3
12212.2
12378.7
18001.8
11445.7
8572.71
7245.28
8080.7
12846.4
14493.9
12882.9
16829
16043.3
13244.6
12212.8
16648.9
15754.2
11484.8
11134.2
15675.4
15226.7
10246.5
7974.85
9242.46
7938.76
9937.82
8710.91
10541.4
9964.51
14533.8
14702.5
9593.09
8207.9
8916.82
8354.5
9031.6
9336.02
10088.4
11095.3
13200.3
15002
7845.59
6144.18
5420.38
6945.97
10821.4
13277.2
7532.94
11978.4
4514
5995.35
6681.53
5480.82
1273.19
4621.59
680.281
1665.03
3857.91
8083.27
1439.01
2810.97
542.687
3864.88
324.834
1352.95
4396.57
4475.54
4992.26
3048.25
6927.79
5492.9
8149.51
5538.94
962.46
2445.24
2464.1
1364.99
1390.65
1821.6
1987.44
1494.43
10176.1
6141.81
1918.45
11529.5
6575.85
2144.73
9725.38
6063.23
2030.3
11365.6
6579.07
2139.64
8954.24
5560.24
1817.99
11125.6
6628.97
2208.12
5113.65
2696.48
705.388
6362.62
4161.37
1449.99
7464.56
5145.2
1771.99
8550.4
5495.69
1817.07
11046
6833.33
2390.92
6129.65
3371
1044.21
5891.09
4213.8
1581
6884.61
5081.47
1853.7
8627.61
6030.67
2143.42
11156.9
6893.9
2432.19
296.588
1987.82
2795.57
4055.44
2106.65
2440.41
5310.32
5062.64
579.841
1028.97
618.219
1068.58
486
1412.56
869.142
1855.82
3209.39
1577.04
4070.5
2354.43
2182.35
3792.45
3369.49
977.1
5917.82
1482.54
-1792.49
789.975
1830.5
1385
1280.57
1215.72
9960.96
4735.62
2716.32
1742.68
10102.5
4937.24
3408.61
2200.23
9996.54
5326.61
4965.38
3588.01
3529.88
2598.87
1802.05
1744.32
12520.6
11160.7
5910.97
6154.17
13251.9
12460.8
6541.35
6616.83
5363.81
5545.75
10938
9203.48
3551.86
3717.55
2026.02
2278.91
4050.41
4031.38
2261.65
2410.6
3170.18
3412.9
1822.44
2196.42
4882.52
3559.51
4922.14
3669.59
7582.73
4735.14
7305.71
5084.27
2972.35
2568.46
3120.7
2377.45
1706.14
1626.54
1986.59
1390.4
12015.2
8791.5
6322.73
6714.29
11935.2
8941.62
6366.48
6682.48
12345.3
9166.32
6458.97
6471.16
13744.9
14574.9
12759.5
8774.93
5295.16
13825.3
13100.2
12492.7
10640.1
7361.87
12957.1
11937.9
9764.9
7767.57
5185.9
7861.51
7302.34
7575.98
8988.45
7984.88
7072.28
7598.29
8815.72
8137.17
6834.41
7590.68
8591.72
10449.3
7367.51
10029.5
7060.81
8190.55
6766.2
7959.3
7038.77
6995.34
8429.89
8668.54
7527.33
7887.73
6965.69
6982.75
6469.04
6467.66
6628.54
5564.83
8044.03
7045.89
4797.66
4685.37
2795.79
8981.5
6930.65
6260.77
5012.92
3958.5
2440.14
5752.88
4356.39
4745.52
2252.68
1754.32
1014.5
4934.11
3558.75
1741.41
1439.81
4200.25
1931.87
1665.06
893.185
3485.2
3349.77
3273.79
4929.74
4863.16
4791.72
4215.45
6378.86
3438.19
2351.12
2313.44
3293.2
1080.16
555.068
320.99
672.516
5135.62
2141.01
628.965
6045.54
1557.15
411.814
5117.68
2279.96
696.935
5979.69
1597.25
442.649
4655.65
2201.02
566.718
5807.51
1608.85
374.566
4505.62
2235.76
471.94
4297.97
2050.27
468.096
4454.87
2130.19
570.319
4646.79
2174.87
452.363
5729.88
1560.5
232.68
5778.91
2860.31
739.26
5454.26
2703.54
729.418
5199.43
2568.73
743.816
5188.81
2199.56
532.661
6177.56
1437.8
347.074
1894.54
687.862
133.71
-226.12
780.613
299.864
80.0724
-46.7418
2018.56
760.977
195.377
-139.575
998.861
422.94
199.664
93.3787
2174.78
849.967
294.061
-10.3857
1712.86
818.78
336.786
87.3546
1303.37
759.412
308.906
14.6798
1236.75
839.849
520.962
325.259
1808.91
817.181
268.173
-183.13
1564.07
693.894
310.922
-191.716
2147.78
842.402
272.504
-143.319
1954.14
767.484
306.164
-323.361
1452.27
765.931
327.432
-48.2068
1202.68
618.28
339.999
12.3408
1078.13
682.458
425.165
273.229
829.759
527.867
364.674
225.42
2447.04
836.936
130.042
-448.682
2467.97
778.485
173.257
-620.005
2446.19
851.034
155.558
-424.298
2388.28
757.177
183.195
-597.81
2402.15
856.347
233.978
-304.914
2226.87
717.545
227.21
-491.57
2102.04
791.262
324.688
-48.1829
2440.87
804.587
324.06
-575.905
1893.97
711.575
329.525
-131.851
1991.84
553.94
156.934
-425.65
802.114
202.385
46.1254
-90.3651
2037.05
586.57
178.153
-401.871
825.855
216.533
59.3023
-73.4014
2058.59
626.867
224.007
-353.085
833.424
234.185
77.8793
-53.4863
1850.58
591.615
258.17
-279.446
803.666
241.521
106.107
-18.4633
1688.61
588.838
288.384
-162.495
711.55
253.825
145.501
30.2619
1184.36
481.445
240.769
-40.6761
664.669
334.373
210.98
117.369
1368.67
486.198
232.407
-112.764
670.567
288.466
178.027
73.9892
952.957
469.343
271.507
52.2481
598.994
356.336
238.142
159.411
672.192
429.879
304.693
198.382
503.051
359.28
263.346
206.119
-20.3419
9.44947
9.84239
7.20024
5.68726
-3.20958
6.16959
5.44148
3.8976
3.07159
13.3374
28.1993
20.9982
14.4798
11.2835
32.8874
27.1698
18.1328
12.1936
9.43569
49.3779
50.0839
34.4349
23.4152
18.2035
133.65
91.6884
58.6178
39.0576
30.1765
161.583
108.647
69.3652
46.3113
35.8877
233.527
143.994
89.5033
59.2873
45.8867
86.9629
73.2088
48.6672
32.7898
25.3432