/*--------------------------------*- C++ -*----------------------------------*\
  =========                 |
  \\      /  F ield         | OpenFOAM: The Open Source CFD Toolbox
   \\    /   O peration     | Website:  https://openfoam.org
    \\  /    A nd           | Version:  11
     \\/     M anipulation  |
\*---------------------------------------------------------------------------*/
FoamFile
{
    format      ascii;
    class       volScalarField;
    location    "3";
    object      gradTx;
}
// * * * * * * * * * * * * * * * * * * * * * * * * * * * * * * * * * * * * * //

dimensions      [0 -1 0 1 0 0 0];

internalField   nonuniform List<scalar> 
5712
(
-6389.08
-8164.58
-15206.6
-22175.5
-22621.5
-39052.3
-17435.7
-44389
-14207.6
-31200.2
-21230.6
-32275.9
-19067.7
-24965.3
-8378.37
-9569.47
-14208.5
-16272
-18406.7
-18265.9
-14542.9
-18014.7
-21424.3
-19270.2
-5173.44
-3862.74
-6439.44
-4308.75
-11978.4
-9525.08
-20492
-14784.4
-15908.4
-16508.6
-17607.8
-16694.2
-6090.81
-4814.95
-37746
-50548.4
-24386.5
-29948.8
-50877.5
-66010
-26352.1
-30160.9
-27925.8
-39470.9
-24348.4
-32303.8
-14197.7
-22941
-2697
-906.783
-2845.74
-1023.49
-8151
-3281.16
-11216.6
-4114.88
-7941.44
-3053.02
-8515.53
-2725.3
-14546.5
-4621.14
-18786.3
-6327.81
-23221.1
-11492.2
-21252.5
-12615.1
-21894.3
-14165.6
-19243.7
-14534.5
-16623.9
-9869.21
-16600
-8419.29
-21916.8
-14072.8
-21961.8
-14216.9
-20307.3
-15409.5
-20550.1
-15494.5
-17964.2
-11433.3
-18611.4
-11726.5
-16932.4
-7293.8
-7788.16
-9427.52
-17005.6
-7957.72
-6759.63
-9501.09
-17942.3
-7275.87
-8855.71
-9530.81
-18839
-7460.25
-9648.26
-9977.98
-3496.39
-3811.52
-1168.1
-2251.41
-10274.2
-10849.4
-3932.72
-6888.07
-13156.7
-14666.9
-6241.99
-10573
-12199.7
-1224.59
-13269
-16182.9
-8685.9
-891.121
-7511.99
-11828.7
-18970.9
-12859.5
-9579.08
-11533.7
-9970.98
-8503.72
-13285
-3391.59
-2821.04
-1928.4
-1918
-9597.29
-8178.57
-5709.8
-5445.39
-12031
-10328.9
-7463.09
-6719.52
-5885.82
-7454.16
-12076.6
-12472.9
-13723.5
-12510.6
-15447.2
-13529.2
-10240.8
-8611.33
-8933.97
-9534.46
-11740.7
-9468.41
-10633.5
-7930.15
-9138.2
-6457.39
-10502.1
-6951.29
-10108.1
-4963.89
-8639.23
-9479.21
-12421.5
-16341.7
-13653.7
-19952
-6835.36
-7706.38
-8922.8
-3136.34
-7684.61
-14888.6
-7281.58
-15919.7
-13510.4
-24597.6
-13741.9
-26055.4
-5760.49
-12714.7
-5217.4
-13508.7
-7915.05
-6104.02
-10929.2
-4430.43
-8224.92
-1927.08
-9573.2
-1015.65
-7577.75
-9037.18
-11438.5
-5336.44
-6247.62
-10618
-10102.5
-6971.71
-2278.87
-2031.4
-1852.62
-1630.17
-1512
-1372.98
-6785.86
-5686.42
-5007.05
-4307.71
-3550.11
-3134.96
-8430.59
-7404.32
-6899.25
-5206.06
-4354.46
-4161.37
-6651
-6007.6
-5905.54
-10978
-8567.16
-7310.59
-10201.7
-7750.58
-6396.87
-10737
-8674.16
-7633.51
-6477.9
-4391.86
-3487.77
-15807.6
-13953.9
-12267.7
-10034.5
-8543.65
-7248.71
-8770.3
-7003.77
-5740.2
-7249.29
-5388.7
-4267.82
-7269.61
-4142.25
-2420.61
-10186.6
-13851.6
-8023.16
-10418.3
-10855.7
-16004.1
-9665.81
-14134.2
-74.8075
-760.54
470.344
-119.089
-2982.81
-3398.64
-1243.79
-687.943
-743.054
-2473.04
-9324.77
-13655.8
-6636.24
-3588.2
-9693.14
-9612.92
-14813.7
-16302.1
553.402
3969
-7483.8
-7056.84
-6975.68
-5384.23
-1046.58
-567.264
-660.206
-258.506
-2069.44
-303.488
290.828
800.976
-9216.25
-2510.38
-6186.4
-1689.07
-8840.1
-2734.24
-10682
-3490.18
-8752.7
-11861.6
-8102.62
-11591.7
-13849.7
-14733.1
-13226.9
-13981.1
-5725.13
-9565.29
-6590.49
-9485.85
-8583.8
-11185.1
-9457.95
-11318.6
-13773.7
-13750.1
-14422.6
-13826.2
-5770.72
-9279.2
-6267.72
-9469.66
-156.089
-1663.1
-7752.07
-5190.94
412.157
-1246.24
-7185.08
-4612.97
-587.255
-1889.9
-7939.73
-5637.73
-1036.82
-2156.02
-8008.07
-5859.53
631.916
738.625
-205.648
-70.6504
2762.5
2821.21
102.284
232.303
382.08
1791.32
-1934.01
-1328.98
10176.1
9399.76
5461.37
4060.73
203.087
10344.4
10772.9
4261.29
6237.22
553.77
-10060.9
-8042.49
-7354.04
-7092.87
-4631.23
788.196
763.292
-21.2827
-155.548
2495.84
2568.99
-83.4822
-388.271
2488.67
3198.37
-991.454
-1429.53
5120.71
2409.31
8217.02
5261.85
3599.01
2797.43
4003.47
3575.91
-837.447
-1930.85
-3730.07
-2365.25
-1081.2
1027.67
-1187.23
668.85
-2083.43
-696.42
-2699.96
-3134.65
-5342.75
-4933.69
-10080.1
-6153.04
-8086.71
-8218.24
-12272.4
-9997.92
-8197.33
-4977.24
-4207.57
-4230.44
-11854.1
-5333.68
-13034.1
-5972.81
-13680.1
-10206.2
-14598.4
-10923.3
-9879.39
-4117.09
-11050.6
-4743.42
-6846.49
-5664.56
-5732.39
-8518.81
-4568.9
-5229.68
-4955.21
-7903.94
-7835.7
-5653.73
-6445.02
-9753.72
-9391.81
-6144.1
-7865.67
-10083.7
830.855
924.037
1056.3
-18.9906
317.852
366.842
3059.45
3360.55
3400.44
134.982
916.961
941.626
3833.92
4438.87
4618.7
-846.862
873.01
1230.81
1358.61
1187.88
890.686
4022.52
4194.83
3955.8
3287.55
3838.46
3822.18
4064.73
4539.62
4493.86
-1751.9
352.418
537.137
-3413.51
-1905.03
-960.45
1118.8
2403.27
3089.45
1010.79
2699.43
3439.48
345.474
2216.83
2764.02
-2872.56
534.484
953.783
17.0504
40.5788
60.1206
92.971
274.291
164.09
141.307
143.4
-23.6671
77.7824
200.075
326.715
438.89
302.121
344.609
390.047
-292.076
21.8924
281.323
575.464
131.5
243.762
337.356
400.276
20.0846
148.569
171.236
174.37
-242.87
-8.7129
134.14
238.002
-1078.93
-226.103
125.53
371.876
-1682.32
-394.917
26.2852
623.49
-777.041
-103.821
208.184
527.262
-1394.66
-303.486
8.58762
549.61
-1136.35
-266.086
146.292
456.139
-1877.59
-467.123
24.4884
730.745
-1258.77
-349.157
128.045
536.455
-2017.19
-532.965
0.423939
764.202
-4.81595
22.1703
50.9435
114.871
26.4863
31.7041
33.0298
105.864
39.7693
78.7264
154.279
307.983
142.173
110.229
100.054
285.739
-497.18
-66.9397
171.503
528.074
-260.849
18.122
134.219
504.708
-156.999
114.992
253.023
526.438
-81.7578
91.9953
118.555
508.953
-1219.44
-237.038
49.751
709.672
81.3615
46.7217
37.012
79.1465
170.568
70.2494
38.3816
36.8628
157.42
109.952
85.2208
206.02
431.832
186.309
98.4849
95.7086
58.6421
119.064
119.621
339.762
533.29
260.49
148.408
151.125
-174.833
103.556
149.974
470.574
388.076
278.896
177.008
192.82
-676.06
-1.28822
94.0885
458.782
56.9591
237.834
168.216
200.365
-1416.56
-149.784
84.3397
533.179
-478.859
55.251
111.314
189.83
-1119.8
-56.9633
97.5489
498.838
-319.828
135.839
144.96
204.116
-1689.99
-265.555
43.2979
576.792
-626.069
-25.5293
73.2978
177.106
-1894.26
-382.458
-14.4056
569.031
-764.968
-116.127
23.0447
152.491
42.0408
19.6541
10.7983
6.77598
5.14737
55.9562
30.4186
17.794
11.4305
8.73468
100.239
45.7756
25.0939
15.8302
12.1119
127.104
68.243
39.9363
25.7674
19.7471
132.666
57.3024
31.0305
19.5558
14.999
171.394
90.5792
53.1058
34.4376
26.4763
90.3725
46.5364
27.1575
17.6398
13.5687
63.0584
26.9769
14.476
9.15709
6.97915
134.518
58.7751
32.3266
20.558
15.7022
63.8196
23.9585
12.4509
7.76393
5.89108
142.109
68.6401
39.4221
25.4303
19.5317
60.2689
23.8639
12.7672
8.01755
6.07505
102.722
38.1707
19.5261
12.144
9.22634
60.2782
21.3522
10.8798
6.77676
5.14953
87.6382
23.9447
9.90723
5.65683
4.1525
48.2521
11.2453
4.24624
2.33099
1.68119
34.8586
14.7929
7.85352
4.83952
3.65044
25.2447
11.7681
6.521
4.0703
3.08016
85.2344
37.2601
20.2596
12.6462
9.61297
65.2809
31.1053
17.5174
11.0233
8.36564
119.133
45.8352
23.9415
14.7456
11.1794
88.9916
43.0704
24.4989
15.467
11.8157
108.909
52.9168
30.5822
19.6653
15.1284
61.0713
32.9703
19.347
12.357
9.52613
56.8742
29.1535
17.1976
11.1616
8.58449
-361.995
-471.132
-832.96
-1159.54
-912.517
-1463.74
-435.197
-1224.48
190.394
-340.2
-777.768
-1240.76
46.7526
-23.6008
-1135.73
-1767.62
-1406.67
-1996.94
-574.191
-132.508
-29.716
-6.53643
-1.63215
-206.285
-88.3371
-12.6755
-3.29656
-1.39878
-1764.52
-405.52
-91.2552
-19.9743
-4.99396
-497.239
-130.829
-31.277
-6.53477
-1.73361
-2973.22
-684.848
-154.504
-33.9232
-8.46199
-782.539
-219.759
-52.5556
-12.0435
-2.99688
-4008.51
-926.159
-209.762
-46.1851
-11.532
-908.005
-275.537
-68.0546
-15.7877
-3.92439
-5036.93
-1175.4
-268.017
-59.2963
-14.8645
-996.846
-332.813
-84.7253
-19.9331
-5.0148
-6032.89
-1451.92
-335.645
-74.8692
-18.8457
-1499.49
-456.306
-112.15
-25.6302
-6.38456
-5591.15
-1340.11
-308.41
-68.513
-17.1938
-1184.89
-389.776
-98.4666
-22.9174
-5.71292
-6243.38
-1505.63
-348.788
-77.9268
-19.6447
-1686.71
-498.141
-120.765
-27.2341
-6.76906
-6519.57
-1559.55
-361.858
-80.8194
-20.3634
-1744.28
-517.387
-126.62
-26.5304
-6.9803
-525.141
-6731.01
-6146.88
-2230.73
1576.02
2705.68
7564.2
11068.2
1643.57
8098.53
-1575.69
2533.61
2433.71
4797.4
9020.48
12774.5
13678.7
17161.6
5580.12
7227.6
-19657.6
-14276.4
-4943.38
-3935.84
-2839.01
-4074.28
-3747.62
-12195.9
-11881.6
-10077.4
-11078.4
-9262.66
-6608.81
-8530.95
-5751.82
-4869.12
-5955.21
-4089.35
-19713.6
-10399.2
-3774.26
-6403.53
-8566.15
-6022
-6633.86
-4957.21
-3058.2
-4332.42
-4554.74
-4912.99
-19359.6
-12787.7
-12197.8
-8858.55
-8867.82
-9255.31
-4101.13
-5435.71
-6788.23
-14256.9
-12618.6
-10945.4
-10543.4
-9509.61
-9359.82
-6509.91
-5208.16
-4162.25
-2232.36
-4376.53
-3642.52
-2741.58
-1715.53
-588.622
-3520.81
-2953.73
-2227.74
-1387.15
-471.759
-2525.04
-2102.86
-1573.36
-972.898
-329.449
-3647.53
-3059.44
-2303.4
-1429.95
-484.923
-3332.27
-2777.4
-2083.14
-1292.78
-439.176
-7959.65
-6242.97
-5075.64
-4938.58
-5594.68
-6579.78
-4947.52
-3646.81
-3142.47
-2259.03
-6314.75
-3814.33
-2710.72
-1965.01
-983.671
-5727.33
-3917.2
-2669.94
-2009.98
-1218.97
-4334.16
-2728.26
-1728.47
-1235.57
-620.357
-5246.94
-3936.93
-2739.03
-1652.14
-573.51
-5810.01
-3731.29
-2462.55
-1500.18
-573.557
-3772.32
-2240.79
-1342.33
-730.812
-249.468
-4021.65
-3114.52
-2203.51
-1325.64
-449.412
-4761.66
-3562.47
-2437.49
-1426.36
-475.643
-3411.98
-2661.77
-1885.98
-1128.18
-378.206
-13224.3
-10301.6
-8604.1
-8009.57
-8016
-7711.12
-5646.25
-4213.82
-2941.88
-1369.78
-3150.79
-2476.67
-1785.59
-1097.43
-380.887
-5444.75
-4374.5
-3228.4
-2028.02
-717.644
-7060.27
-5591.79
-4169.9
-2727.99
-1051.34
-5147.95
-4174.65
-3121.83
-1990.52
-713.232
-5765.22
-4734.42
-3554.52
-2249.95
-790.677
-4326.64
-3551.75
-2647.97
-1652.96
-569.674
-2641.78
-2133.84
-1556.2
-947.795
-319.616
-3821.21
-3156.69
-2348.75
-1449.97
-491.684
-3884.28
-3105.87
-2256.88
-1380.78
-470.758
-4266.29
-3479.31
-2574.72
-1596.12
-547.573
-13679.1
-11589.6
-9989.03
-9289.6
-8520.34
-8961.55
-6508.06
-5145.05
-3953.07
-2095.34
-9101.99
-7325.24
-5725.15
-4381.42
-2208.58
-7019.56
-5386.22
-4130.59
-2881.04
-1206.33
-7441.83
-6004.36
-4543.16
-2994.99
-1144.28
-7274.59
-5535.23
-4217.15
-2929.25
-1212.56
-3534.01
-2873.08
-2136.46
-1343.21
-470.66
-4801.36
-3979.35
-2977.2
-1850.34
-630.934
-5864.25
-4783.66
-3571.15
-2252.03
-789.296
-5374.68
-10921
-11423.5
-31187.2
-11293.6
-41833.4
-6145.21
-14877.2
-11309.5
-8754.25
-18712.3
-15631.5
-11325.1
-10708.5
-21044.3
-16725.9
-3950.78
-2930.23
-7623.78
-5228.56
-8859.5
-6670.37
-23697.7
-17480.8
-14616
-11127.2
-15015.9
-8945.82
-1164.56
-3602.78
-38927.9
-51023.9
-23573
-29805
-51548.4
-66276.3
-25455
-29943.9
-28965.6
-40002.7
-23614.8
-32246.4
-15610.6
-23606.2
-1879.02
-494.517
-3292.93
-1122.45
-6391.56
-2845.27
-12946.7
-4669.15
-2823
-1594.48
-7049.88
-2212.52
-14579.7
-4574.7
-18960.5
-6377.13
-16048
-8304.26
-18429.9
-10980.1
-14712.5
-10529.1
-16444.4
-12792
-14650.4
-8578.4
-11616
-5982.29
-20824.4
-13333.5
-21688.5
-14014.3
-19194.3
-14652.2
-20253.1
-15288.1
-17236
-10834.1
-18438.8
-11560.8
-15986.4
-7033.71
-6946.88
-9123.38
-14317.5
-7184.03
-5191.87
-8945.89
-17688.4
-7212.47
-8463.54
-9381.08
-18808.8
-7456.08
-9537.6
-9934.09
-1082.43
-969.383
-259.653
-1136.54
-4394.65
-4532.35
-2733.97
-5396.96
-2443.14
-3046.62
-4231.56
-7984.69
-11874.6
-9606.61
-9103.74
-11300.2
-7394.19
-7579.9
-8054.73
-6660.11
-13069.5
-11224.8
-11292.8
-9374.83
-6450.84
-5491.18
-12049.8
-1043.83
-784.658
-579.442
-649.159
-4082.67
-3251.07
-3439.6
-3030.73
-573.047
520.174
-4058.9
-3186.37
-10082.7
-10719
-9395.24
-8601.29
-6906.56
-5022.91
-9002.42
-7184.4
-7962.44
-6240.61
-11432.6
-11681.6
-9719.68
-7668.55
-7147.25
-4907.08
-6255.87
-4002.72
-9270.27
-5667.61
-9165.05
-5087.26
-8165.07
-9337.72
-12923.4
-17231.5
-13628.8
-19907.1
-6212.24
-7419.96
-7553.59
-2910.93
-7515.29
-14729.1
-7242.34
-15861.2
-13455.1
-24681.7
-13720.7
-26032.8
-5527.26
-12520.1
-5162.42
-13449.9
-7447.11
-5908.59
-10732.6
-4380.83
-7193.9
-1828.49
-9240.8
-1253.82
-7391.19
-8909.73
-11350
-5303.08
-6198.78
-10577.5
-10079.1
-6956.23
-776.025
-722.179
-521.369
-602.79
-2482.06
-1813.97
-2234.34
-2032.26
1072.7
606.139
-2620.9
-2918.44
-10625.5
-10107.2
-7612.27
-6605.06
-3993.89
-3383.72
-5634.44
-4662.13
-5245.89
-3839.16
-18182.5
-15987.4
-7872.65
-6760.79
-5917.83
-4560.83
-4851.37
-3165.37
-5128.85
-2271.68
-5572.78
-9152.71
-4882.44
-9233.72
-8171.47
-10249
-9137.73
-12473.5
-1002.08
-744.873
-789.923
-681.04
-3639.33
-2639.64
-2988.67
-1729.05
-1486.07
-1766.55
-8327.86
-8967.1
-4686.68
-4226.53
-9211.69
-9510.17
-14026.3
-16085.2
279.134
3760.17
-7343.34
-7098.96
-6901.97
-5445.09
-1095.88
-1002.76
-1177.74
-977.126
-1838.83
-1312.43
-714.922
-628.827
-8163.29
-3931.18
-6927.41
-3298.54
-9169.64
-3703.37
-10826.7
-3889.01
-5474.65
-10277.4
-7023.64
-10756.7
-8599.23
-11537.6
-11218.4
-12502.3
-5369.95
-9402.88
-4891.36
-9357.92
-8157.79
-10848.9
-9334.08
-11230.8
-12936.1
-13135.8
-14184.8
-13660.3
-5714.59
-9247.41
-6267.16
-9471.86
-804.214
-2541.28
-8208.27
-5885.72
-787.13
-2627.39
-8121.51
-5633.2
-1074.85
-2510.28
-8197.85
-6065.73
-1238.84
-2406.54
-8086.28
-6007.62
-1104.67
-1223.16
-1048.19
-1151.79
-2196.98
-2270.52
-1569.49
-1731.36
-8500.61
-7890.89
-4175.94
-4273.47
-3853.76
-5261.02
-4201.98
-551.162
-2105.77
-1379.6
-1471.24
-3689.22
2450.59
-1188.4
-13642.5
-11760
-10823.4
-9607.41
-6314.71
-1236.91
-1129.14
-1311.23
-1668.36
-2268.48
-1797.76
-2235.07
-2983.8
-8277.34
-8233.68
-4733
-6192.16
-5069.55
-6724.1
-3253
-5185.38
-5000.83
-5457.69
-1401.14
-1753.18
-3356.96
-4961.45
-9651.44
-7962.15
-7744.88
-5723.62
-6925.99
-4989.54
-6350.73
-4730.58
-4969.14
-5533.74
-8505.73
-8437.71
-11406.2
-7431.08
-10424.4
-11230.1
-13037.1
-11009.7
-9798.65
-6224.11
-7276.04
-7311.65
-12382.9
-6131.42
-13172.6
-6168.48
-13899.6
-10863.6
-14643.9
-11065.9
-10623.6
-4902.36
-11261.8
-4954.15
-8379.46
-6805.96
-7106.73
-9813.94
-7193.27
-7731.48
-6928.07
-9988.39
-8642.52
-6402.78
-7230.62
-10583.6
-9644.91
-6381
-8120.61
-10322.7
-929.054
-796.057
-1211.26
-871.765
-1516.28
-1771.67
-1822.07
-1293.41
-8096.98
-7087.11
-4191.51
-1852.75
-7902.24
-7510.98
-6240.16
-5611.79
-5297.08
-4523.48
-2033.09
-2043.35
-4732.45
-2097.9
-8659.41
-7422.36
-4981.38
-3899.9
-3969.07
-2415.64
-3056.6
-1260.52
-4965.04
-141.195
-260.02
-121
-41.7865
25.7107
-244.213
-155.57
-63.0299
7.59317
-702.42
-314.902
-24.7412
191.194
-634.012
-372.661
-76.7436
109.843
-1147.91
-465.74
12.1442
439.857
-1130.37
-563.761
-205.126
6.43593
-772.663
-379.561
-187.347
-61.8654
-591.902
-248.917
-30.2614
126.177
-1714.92
-609.63
-135.902
171.049
-2055.49
-589.738
-85.9726
597.881
-1649.22
-586.876
-98.9166
300.522
-1867.74
-530.831
-112.646
549.767
-1599.76
-561.035
-45.7786
337.166
-2129.97
-607.672
-65.6854
692.417
-1449.41
-474.816
44.6919
483.32
-2109.72
-586.802
-34.6651
749.591
-241.677
-99.2022
-16.1334
81.781
-208.6
-75.7755
-28.8932
79.3482
-623.027
-259.303
-30.5121
208.677
-523.738
-199.646
-78.2137
204.097
-1233.46
-432.892
-15.3416
459.787
-1121.9
-377.684
-87.4333
425.061
-1365.18
-513.162
-106.874
333.013
-1034.68
-358.288
-117.728
475.426
-1883.63
-530.321
-98.5252
752.112
-149.404
-56.5368
-17.8927
50.3688
-66.0592
-39.347
-19.3682
-1.11798
-451.213
-163.607
-68.3793
122.285
-220.861
-117.911
-65.3836
-11.4618
-803.275
-272.459
-103.769
221.908
-456.718
-207.414
-103.449
-11.5286
-1224.37
-393.053
-133.99
334.051
-809.471
-306.866
-138.092
-6.4966
-1618.91
-473.147
-197.607
290.82
-1100.13
-372.317
-177.832
-28.3902
-2174.44
-614.904
-211.085
364.806
-1100
-347.029
-145.225
14.697
-2091.57
-603.11
-241.547
305.435
-1213.07
-386.298
-171.238
-13.2124
-2151.41
-563.508
-149.502
469.975
-989.289
-279.449
-90.4869
70.3351
-2046.1
-483.365
-80.4457
532.361
-879.285
-199.083
-31.0278
117.562
-9.5157
-13.9887
-10.3081
-7.19817
-5.66581
-35.9671
-26.8626
-17.7351
-12.0302
-9.40975
-19.4776
-31.9166
-23.5509
-16.3597
-12.7939
-77.7176
-59.445
-39.303
-26.5718
-20.7379
-14.2556
-38.4598
-28.8878
-20.0865
-15.6726
-101.223
-78.1789
-51.4216
-34.5796
-26.9088
-49.0133
-39.1937
-25.9013
-17.3978
-13.5383
-8.47175
-17.0971
-12.8467
-8.91292
-7.02616
-26.4951
-41.636
-29.9807
-20.6028
-16.1422
3.51085
-14.2043
-11.292
-7.92965
-6.25308
-62.6482
-56.7395
-37.9166
-25.5725
-19.9064
-3.83714
-16.1803
-12.0509
-8.3667
-6.5971
9.7327
-20.445
-16.9666
-11.9946
-9.46367
7.76653
-11.5
-9.50909
-6.69879
-5.28528
45.0993
-2.97113
-6.9193
-5.52558
-4.56022
30.6406
0.027559
-2.77522
-2.34243
-1.9702
-1.89103
-9.87345
-7.65696
-5.42877
-4.29394
-8.64854
-9.57092
-6.68265
-4.63431
-3.64756
-14.9257
-27.6229
-20.1594
-14.0497
-11.0303
-29.2567
-27.0913
-18.2873
-12.5491
-9.84806
4.85774
-30.0989
-23.5398
-16.6438
-13.0999
-47.4383
-39.3817
-26.0325
-17.7797
-13.8718
-56.8987
-46.9564
-30.68
-20.6699
-16.0461
-51.2393
-32.8544
-20.7621
-14.0038
-10.8374
-38.8964
-27.1265
-17.184
-11.4591
-8.89742
-68.575
-202.102
-133.416
-517.558
-94.9976
-717.811
171.679
-658.024
426.313
-138.062
-772.674
-1242.11
54.8108
-104.849
-1136.46
-1763.73
-1407.33
-1995.31
-561.434
-132.233
-29.8461
-6.58247
-1.64544
-151.991
-82.1139
-11.4785
-3.13511
-1.39236
-1735.5
-405.343
-91.7192
-20.119
-5.03495
-366.378
-110.783
-28.2293
-6.06391
-1.65803
-2928.65
-683.555
-154.993
-34.1065
-8.51684
-633.047
-196.277
-48.8796
-11.4805
-2.90091
-3955.06
-922.57
-209.834
-46.3002
-11.5751
-796.779
-256.4
-64.8405
-15.2609
-3.82878
-4993.36
-1170.78
-267.659
-59.3121
-14.8851
-952.017
-322.086
-82.5879
-19.5435
-4.93883
-6016.56
-1448.45
-335.001
-74.7656
-18.8298
-1498.14
-455.068
-111.759
-25.5381
-6.36227
-5567.75
-1335.77
-307.749
-68.4334
-17.1891
-1179.02
-385.456
-97.3363
-22.6798
-5.66202
-6232.77
-1503.26
-348.309
-77.8414
-19.629
-1685.89
-497.739
-120.637
-27.2045
-6.76185
-6515.94
-1558.73
-361.687
-80.7879
-20.3575
-1744.05
-517.304
-126.594
-26.5255
-6.97901
-551.623
-6662.36
-5910.13
-2199.81
-1552.57
-938.647
-3662.12
-2687.61
-6255.95
-5848.21
-2968.55
-2245.55
-427.576
-651.324
-1110.62
-1789.51
-2656.28
-3618.99
-307.414
-656.599
-1357.96
-2346.82
-3500.93
-4646.36
-326.104
-150.42
-557.204
-382.299
-1020.27
-850.15
-1690.15
-1575.08
-2406.68
-2324.44
-3113.61
-2827.98
-4425.75
-4931.33
-5289.53
-7750
-8581.46
-9396.46
-5566.8
-6046.52
-5946.76
-5365.98
-4545.88
-3942.03
-386.453
-327.588
-248.97
-155.519
-52.8772
-588.361
-498.429
-378.585
-236.38
-80.3526
-1002.63
-848.785
-644.304
-402.128
-136.672
-1614.05
-1365.09
-1035.41
-645.938
-219.503
-2392.42
-2020.48
-1530.89
-954.601
-324.379
-3251.57
-2739.79
-2072.93
-1292.26
-439.301
-277.74
-235.346
-178.801
-111.656
-37.9566
-592.876
-502.029
-381.165
-237.926
-80.8671
-1225.44
-1037
-786.939
-491.074
-166.895
-2115.85
-1788.82
-1356.51
-846.237
-287.587
-3151.82
-2660.95
-2016.02
-1257.33
-427.349
-4173.67
-3516.55
-2661.32
-1659.88
-564.518
-294.82
-249.962
-190.007
-118.705
-40.3661
-135.992
-115.302
-87.6449
-54.7541
-18.6193
-503.487
-426.646
-324.138
-202.418
-68.816
-345.48
-292.788
-222.462
-138.93
-47.2324
-921.392
-780.288
-592.474
-369.838
-125.707
-767.869
-650.374
-493.882
-308.306
-104.792
-1524.99
-1290.19
-978.791
-610.634
-207.497
-1421.22
-1202.39
-912.102
-568.944
-193.307
-2168.36
-1831.66
-1387.77
-865.118
-293.888
-2094.05
-1768.45
-1339.28
-834.445
-283.358
-2797.6
-2356.61
-1781.77
-1109.69
-376.941
-2540.08
-2138.07
-1614.51
-1004.05
-340.688
-3959.7
-3324.48
-2511.25
-1566.75
-533.676
-4377.89
-3654.03
-2756.22
-1726.11
-591.876
-4626.42
-3823.67
-2884
-1827
-639.021
-6577.93
-5352.11
-4063.81
-2661.14
-989.553
-6894.14
-5475.59
-4218.08
-2932.83
-1237.37
-7230.52
-5647.17
-4398.69
-3194.18
-1466.21
-4983.26
-4186.71
-3164.96
-1975.79
-673.148
-5383.61
-4504.82
-3402.51
-2129.87
-728.769
-5248.56
-4365.96
-3297.32
-2077.28
-717.928
-4662.12
-3842.57
-2907.98
-1859.55
-658.821
-3825.37
-3100.96
-2362.15
-1561.54
-588.225
-3200.29
-2548.12
-1956.19
-1341.66
-539.601
-450.094
-719.921
-1228.25
-1960.42
-2887.62
-3897.76
-339.302
-753.477
-1521.74
-2575.57
-3779.82
-4936.79
-347.907
-169.389
-623.852
-441.231
-1135.75
-955.374
-1861.58
-1735.91
-2652.36
-2598.55
-3427.17
-3238.96
-4712.44
-5194.79
-5529.53
-7892.69
-8642.98
-9415.35
-5810.53
-6188.36
-5966.51
-5287.55
-4439.07
-3893.7
-406.919
-345.056
-262.342
-163.921
-55.7431
-650.755
-551.733
-419.43
-262.066
-89.1192
-1109.79
-940.521
-714.752
-446.51
-151.834
-1770.21
-1499.24
-1138.82
-711.288
-241.867
-2604.71
-2203.84
-1673.01
-1044.81
-355.331
-3509.39
-2964.52
-2248.76
-1404.74
-478.064
-306.718
-260.067
-197.716
-123.538
-42.0093
-680.965
-577.256
-438.788
-274.151
-93.2282
-1374.63
-1164.69
-884.974
-552.825
-187.989
-2324.83
-1968.33
-1494.87
-933.66
-317.505
-3407.77
-2882.02
-2187.38
-1366.12
-464.68
-4442.21
-3750.58
-2844.4
-1777
-604.886
-314.613
-266.839
-202.913
-126.807
-43.1286
-153.204
-129.963
-98.8451
-61.78
-21.0141
-564.062
-478.348
-363.718
-227.289
-77.3006
-399.005
-338.434
-257.375
-160.851
-54.7078
-1026.53
-870.226
-661.485
-413.285
-140.544
-863.649
-732.281
-556.712
-347.852
-118.295
-1681.61
-1424.73
-1082.49
-676.154
-229.918
-1568.37
-1329.01
-1009.87
-630.804
-214.492
-2393.78
-2026.32
-1538.61
-960.846
-326.728
-2345.81
-1986.11
-1508.16
-941.732
-320.185
-3087.68
-2609.57
-1979.73
-1236.32
-420.571
-2919.61
-2468.33
-1872.43
-1168.76
-397.385
-4228.53
-3562.56
-2700.48
-1689.38
-576.268
-4631.18
-3884.41
-2944.11
-1850.47
-635.677
-4866.68
-4050.81
-3075.9
-1957.9
-686.243
-6746.95
-5532.76
-4232.79
-2787.21
-1039.24
-6991.76
-5592.04
-4336.82
-3030.38
-1281.5
-7266.94
-5692.21
-4446.19
-3234.98
-1485.7
-5211.89
-4389.31
-3326.13
-2080.33
-709.477
-5522.01
-4632.74
-3508.46
-2200.85
-753.94
-5277.6
-4401.94
-3334.08
-2105.68
-728.896
-4602.6
-3803.05
-2887.21
-1852.46
-658.166
-3738.43
-3035.41
-2319.58
-1540.38
-583.223
-3160.54
-2517.46
-1935.7
-1331.18
-537.09
-19593.1
-14330.1
-5313.73
-4340.64
-3296.08
-4655.81
-4228.59
-12924
-14608.5
-11584.2
-13368.8
-8045.98
-11386.2
-6183.68
-6444.31
-4730.6
-20355.4
-11366.7
-4450.18
-7283.92
-9404.66
-6515.72
-7280.16
-5523.24
-3411.71
-4974.24
-5448.25
-5603.06
-19235.4
-12978.9
-12830.4
-9242.48
-9297.62
-9770
-4760.99
-6064.82
-7405.36
-14272.7
-12697.4
-11067.3
-10710.9
-9669.53
-9455.2
-6610.55
-5307.02
-4245.82
-2269.44
-4734.77
-3970.26
-3010.12
-1893.83
-651.538
-3899.63
-3288.4
-2493.04
-1558.61
-531.2
-2958.11
-2490.65
-1884.63
-1175.94
-400.181
-4190.07
-3537.16
-2680.88
-1673.27
-569.12
-3789.5
-3188.08
-2413.54
-1508.61
-514.42
-9655.22
-8232.88
-7008.01
-6581.06
-6810.46
-11072.6
-9752.34
-8078.9
-6616.67
-4028.87
-8420.27
-5983.01
-4605.12
-3300.69
-1477.21
-10085.6
-8480.9
-6775.83
-5072.92
-2497.32
-6843.89
-5531.37
-4120.47
-2599.46
-912.732
-8991.37
-6752.48
-4994.15
-3216.03
-1192.94
-5383.65
-4422.09
-3308.78
-2073.42
-715.769
-5589.8
-4578.41
-3421.38
-2145.09
-741.724
-4152.33
-3430.38
-2570.08
-1605.13
-550.357
-14584.9
-11950.6
-10265.5
-9461.26
-9061.69
-8923.56
-6922.52
-5367.11
-3779.95
-1707.95
-3867.18
-3178.62
-2388.77
-1510.05
-528.95
-6355.19
-5254.18
-3979.54
-2541.85
-903.208
-7991.53
-6534.18
-5003.64
-3318.58
-1275.35
-5667.6
-4684.81
-3564.26
-2297.89
-825.975
-6405.55
-5333.11
-4054.54
-2587.53
-911.617
-4889.1
-4078.97
-3088.24
-1949.04
-674.93
-3026.02
-2521.71
-1897.71
-1184.72
-404.872
-4444.12
-3728.24
-2817.47
-1760.61
-600.902
-4794.05
-3973.17
-2988.25
-1874.76
-646.419
-4957.4
-4131.02
-3120.81
-1963.76
-678.198
-13819.2
-11892.4
-10397.4
-9763.29
-9003.2
-9254.1
-6819.52
-5445.51
-4197.81
-2207.77
-10030
-8328
-6685.12
-5139.9
-2558.36
-7477.58
-5867.85
-4573.94
-3212.07
-1336.76
-7931.79
-6513.2
-5005.51
-3331.35
-1275.05
-7900.43
-6184.22
-4814.65
-3372.77
-1390.07
-4185.71
-3479.9
-2640.4
-1681.22
-590.963
-5409.99
-4536
-3432.5
-2151.64
-736.822
-6497.02
-5392.99
-4091.53
-2608.51
-917.958
-507.18
-1433.51
-2259.72
-3027.05
-3749.85
-4422.27
-2544.82
-6845.93
-6533.53
-2502.01
-8724.43
-7317.77
-8769.24
-9733.1
-2300.98
-1486.81
-5344.36
-3110.77
-10213.5
-7214.76
197.26
-2069.51
-5720.48
-5388.1
-2021.77
-7445.09
-5993.43
-7382.13
-8337.28
-1906.75
-884.71
-4590.83
-1645.14
-8503.52
-4330.99
1450.44
-1519.78
-4373.94
-4113.74
-1491.88
-5914.95
-3647.2
-6028.43
-6706.18
-1444.02
-804.9
-3267.56
-1706.18
-6830.91
-1779.07
1584.58
-1128
-3409.43
-3278.38
-1149.39
-4562.83
-2261.29
-5047.08
-5960.47
-1093.27
-844.056
-2404.84
-1720.34
-6047.46
-411.206
1190.53
-918.147
-2909.78
-2844.79
-976.657
-3696.41
-1890.81
-4553.92
-5804.95
-871.3
-916.534
-1744.81
-1650.31
-5298.32
-195.616
111.698
-815.192
-2611.48
-2624.36
-889.162
-3437.82
-2139.14
-4235.45
-5560.17
-678.113
-719.65
-1455.87
-1619.68
-5213.63
-955.384
-461.713
-1383.54
-3395.18
-4873.55
-1881.21
-5503.84
-9585.67
-7166.72
-10347.3
-1029.4
-747.987
-3918.07
-2475.44
-1296.27
-9302.69
-4869.34
-1293.89
-3182.41
-4306.3
-1643.73
-5116.56
-8712.24
-6505.55
-8865.11
-1060.36
-672.421
-4085.87
-2366.74
-474.365
-9172.74
-3719.89
-1149.91
-2837.6
-3567.05
-1335.45
-4703.08
-7874.69
-5593.08
-7882.43
-955.503
-775.853
-3547.66
-2495.38
-669.725
-7505.5
-3602.49
-1008.55
-2588.18
-3001.06
-1100.53
-4434.94
-7241.88
-5036.67
-7235.1
-891.058
-799.554
-3333.02
-2641.34
-440.113
-7041.2
-3699.12
-921.501
-2348.98
-2692.67
-973.693
-4064.75
-6717.15
-4636.73
-6926.54
-843.994
-862.754
-3065.8
-2877.77
-557.289
-6827.62
-3824.35
-861.301
-2108.7
-2512.3
-902.258
-3770.56
-6656.85
-4331.87
-6723.48
-877.857
-989.878
-2745.2
-2739.71
-798.694
-7014.52
-4244.41
5809.51
7334.02
15241.2
22248.6
22651.3
39038.2
17443.9
44391.9
14220.1
31205.8
21273.9
32278.2
19081.3
25043.5
7204.17
8160.48
14220.6
16274.8
18402
18263.5
14544.4
18012.7
21421.6
19267.3
4771.14
3596.05
5859.16
3934.46
11979.9
9498.27
20539
14805.1
15886.4
16513.2
17600.3
16695
6089.66
4795.02
37751.2
50554.9
24387.1
29950.7
50883.9
66017.5
26351.9
30161.9
27929.6
39476.5
24348
32306.4
14203.1
22946
2545.29
869.955
2616.46
951.664
8123.6
3268.45
11220.6
4115.68
7936.48
3050.05
8503.69
2720.71
14547.3
4621.15
18789
6328.69
23220.8
11491.2
21251.1
12613.9
21891.7
14163.5
19241.3
14532.6
16621.6
9868.07
16599.4
8418.31
21916.3
14071.9
21961.8
14216.1
20305.9
15408.1
20549.3
15493.3
17963.8
11432.6
18611.8
11726.1
16929
7292.67
7787.02
9427.39
17003.1
7956.64
6758.33
9500.8
17942.2
7275.89
8855.2
9530.93
18840.2
7460.73
9648.04
9978.24
3285.94
3542.99
1121.1
2115.95
10228.1
10809.7
3911.64
6857.39
13148.8
14658.5
6238.35
10567.1
12199.8
1225.43
13268.2
16179.8
8684.52
892.034
7512.28
11828.1
18967.3
12857.4
9577.79
11532.8
9969.78
8501.77
13284.3
3098.49
2551.1
1743.77
1756.7
9617.2
8196.06
5757.14
5474.67
12024.5
10326.2
7460.57
6719
5886
7454.1
12076.5
12472.7
13722.5
12509.8
15444
13527.5
10239.8
8611.24
8933.38
9534.2
11740.1
9468.21
10632.6
7929.79
9136.92
6456.86
10501.9
6951.41
10107.5
4963.82
8638.45
9479
12420.5
16341.1
13652.4
19951.2
6834.79
7706.33
8922.27
3136.33
7683.88
14888.4
7280.88
15919.5
13509.2
24596.8
13740.9
26054.7
5760.02
12714.8
5216.95
13508.8
7914.82
6104.11
10929.5
4430.64
8224.46
1927.13
9573.41
1015.92
7577.68
9037.36
11438.9
5336.66
6247.52
10618.2
10102.9
6971.98
2029.98
1822.66
1686.95
1492.82
1393.73
1277.06
6809.25
5694.7
5006.55
4333.87
3561.98
3138.09
8430.61
7405.08
6899.98
5207.16
4356.82
4163.81
6651.02
6007.77
5905.74
10977.9
8567.36
7310.86
10201.4
7750.82
6397.26
10736.8
8674.76
7634.29
6478.4
4392.99
3489.04
15807.5
13954.1
12268
10034.3
8543.72
7248.94
8770.16
7003.89
5740.48
7249.16
5388.88
4268.17
7269.72
4142.56
2421.06
10161.9
13836
7996.23
10404.7
10844.1
15995.4
9651.94
14126.4
109.352
664.108
-392.285
75.4949
2982.42
3470.43
1245.23
765.899
718.809
2448.33
9309.12
13636.3
6619.36
3575.72
9686.24
9609.88
14809.6
16300.3
-559.059
-3970.82
7474.79
7052.66
6970.48
5382.26
916.091
516.243
557.772
221.79
2123.67
314.301
-231.07
-784.035
9205.66
2508.88
6180.22
1689.23
8833.67
2732.73
10678.7
3489.13
8743.2
11856.8
8095.16
11587.8
13843.2
14729.3
13221.8
13978.1
5718.35
9561.67
6582.15
9481.52
8579.25
11182.4
9455.47
11316.8
13770.5
13747.9
14420.7
13824.6
5766.5
9276.63
6265.5
9467.93
152.473
1662.62
7749.47
5189.95
-416.421
1245.53
7182.22
4611.95
584.49
1889.22
7937.71
5636.82
1035.35
2155.56
8006.69
5858.84
-600.474
-698.227
188.911
57.5146
-2738.81
-2795.04
-98.6994
-221.534
-380.816
-1790.01
1933.53
1328.6
-10176.1
-9398.98
-5461.68
-4060.96
-203.264
-10343.3
-10771.8
-4261.26
-6236.12
-553.775
10058.9
8039.54
7351.11
7090.53
4630.23
-757.716
-729.106
-6.20891
119.725
-2464.55
-2540.9
108.953
411.998
-2487.3
-3196.01
991.078
1428.78
-5120.51
-2409.33
-8216.76
-5261.81
-3599.32
-2797.53
-4003.03
-3575.17
837.108
1930.31
3729.15
2364.91
1079.87
-1028.05
1186.05
-669.144
2082.63
696.247
2699.42
3134.16
5340.68
4932.72
10077.9
6151.92
8085.08
8217.39
12270.6
9996.9
8195.35
4976.24
4205.73
4229.54
11852.4
5332.72
13032.8
5972.01
13678.6
10205.3
14597.2
10922.5
9877.76
4116.25
11049.4
4742.74
6845
5663.69
5731.5
8517.93
4567.5
5228.86
4954.36
7903.07
7834.45
5652.92
6444.2
9752.83
9390.76
6143.43
7864.94
10082.9
-795.867
-863.021
-983.74
-12.6328
-315.13
-356.864
-3028.51
-3343.31
-3388.47
-105.391
-901.127
-930.755
-3830.88
-4436.02
-4616.68
845.446
-872.494
-1230.42
-1358.57
-1187.76
-890.564
-4022.46
-4194.62
-3955.58
-3287.36
-3838.07
-3821.81
-4063.67
-4538.3
-4492.71
1751.18
-352.388
-536.958
3413.3
1905.11
960.642
-1118.94
-2403.1
-3089.2
-1010.84
-2699.16
-3439.13
-345.397
-2216.42
-2763.56
2872.07
-534.519
-953.706
-13.2799
-35.9062
-54.1753
-83.5641
-255.916
-152.19
-130.755
-131.924
24.1051
-77.5604
-200.277
-328.169
-433.995
-300.254
-343.329
-389.209
292.054
-21.8872
-281.269
-575.301
-130.877
-243.556
-337.297
-400.212
-20.1017
-148.552
-171.221
-174.336
242.826
8.72022
-134.124
-237.974
1078.91
226.169
-125.465
-371.774
1682.14
394.925
-26.2349
-623.375
776.95
103.877
-208.08
-527.058
1394.49
303.505
-8.52899
-549.471
1136.26
266.118
-146.239
-456.061
1877.41
467.125
-24.4437