/*--------------------------------*- C++ -*----------------------------------*\
  =========                 |
  \\      /  F ield         | OpenFOAM: The Open Source CFD Toolbox
   \\    /   O peration     | Website:  https://openfoam.org
    \\  /    A nd           | Version:  11
     \\/     M anipulation  |
\*---------------------------------------------------------------------------*/
FoamFile
{
    format      ascii;
    class       volScalarField;
    location    "3";
    object      T;
}
// * * * * * * * * * * * * * * * * * * * * * * * * * * * * * * * * * * * * * //

dimensions      [0 0 0 1 0 0 0];

internalField   nonuniform List<scalar> 
5712
(
540.257
555.776
530.26
549.024
515.739
539.714
490.522
519.054
490.101
512.688
512.6
534.673
526.182
545.263
535.081
552.078
507.506
488.337
526.466
498.712
480.457
460.342
499.497
469.581
548.08
555.405
560.251
564.267
538.353
547.415
554.291
559.98
538.721
524.312
517.384
507.963
535.552
548.749
544.813
544.502
508.391
512.353
522.195
521.351
479.052
482.371
551.589
553.611
527.611
533.405
560.287
562.852
560.38
567.978
567.329
570.863
553.98
565.459
564.103
569.568
541.136
559.998
551.658
565.071
559.565
568.128
562.635
569.206
474.808
463.385
481.715
465.586
443.953
433.715
451.388
436.282
508.178
493.271
501.852
491.004
486.707
466.633
488.046
466.413
456.518
437.631
457.937
437.574
512.764
494.315
514.044
494.163
531.283
557.169
519.927
549.156
525.43
553.675
517.052
546.371
535.51
559.206
521.305
550.634
536.836
559.948
521.36
551.299
554.77
543.572
564.763
556.499
545.686
534.555
561.134
551.768
531.896
521.454
554.731
544.594
461.022
424.794
492.057
516.958
546.718
419.438
455.694
486.918
510.582
538.015
424.573
457.627
487.099
512.862
540.837
523.658
506.628
528.163
511.888
517.947
502.167
526.158
509.687
508.774
494.013
522.948
506.649
409.828
398.093
447.365
435.686
477.414
464.979
500.377
486.872
521.18
505.998
413.784
400.921
448.4
438.835
478.306
468.411
503.206
491.639
523.859
510.67
451.544
446.64
449.75
444.965
417.812
399.666
417.537
398.404
479.179
477.639
481.073
478.517
447.22
443.593
447.09
443.632
416.649
398.126
416.737
398.322
476.344
476.255
476.184
476.347
506.081
504.513
527.581
525.285
506.694
503.706
527.342
523.182
504.593
503.971
527.417
525.756
503.22
503.031
526.256
524.655
488.759
475.439
468.657
491.64
477.207
470.159
485.537
472.011
464.942
489.528
474.579
467.169
477.619
464.043
456.902
486.378
470.319
462.294
385.804
377.576
373.807
422.442
411.169
405.26
450.586
436.936
429.337
470.524
455.923
448.308
484.672
466.75
457.621
387.19
376.799
371.921
427.631
415.632
409.334
455.226
440.549
432.318
474.64
457.059
447.448
486.572
466.183
455.499
415.668
406.949
421.231
412.649
446.441
431.668
456.628
439.1
392.188
370.082
393.39
372.088
393.41
372.745
395.293
374.921
394.911
390.938
394.171
388.663
375.996
379.753
416.769
419.611
444.463
447.255
398.204
402.594
398.076
400.819
382.854
386.1
348.446
331.373
353.941
334.942
350.986
331.878
356.439
335.972
354.998
332.482
362.29
337.821
366.253
341.063
368.274
343.093
389.813
380.493
397.294
384.012
415.14
405.091
422.49
408.278
377.087
363.214
369.733
359.657
401.593
386.014
403.52
386.685
427.014
410.021
428.675
410.326
381.268
365.337
383.349
366.209
357.794
334.868
346.321
328.56
350.951
330.549
343.001
326.054
361.991
338.076
348.358
330.21
364.327
340.277
349.298
331.142
331.778
320.013
324.357
316.321
333.878
322.588
324.585
316.997
338.105
328.572
325.391
319.126
370.975
394.316
353.74
341.034
325.063
389.477
366.344
347.108
334.875
320.929
394.023
370.885
352.367
337.956
322.976
309.803
299.938
308.026
298.787
312.891
303.037
309.432
300.336
319.082
309.22
312.193
303.202
379.465
367.837
356.53
345.118
339.315
329.001
327.12
316.99
315.622
306.653
382.826
368.657
360.333
346.67
343.284
331.014
329.992
318.241
317.776
307.973
364.483
346.33
367.554
348.311
387.433
367.888
389.783
368.466
349.421
332.922
346.5
330.697
370.157
349.584
370.893
350.184
391.458
368.783
391.926
369.201
352.068
334.478
352.834
335.033
333.354
318.742
319.387
307.47
331.773
317.002
318.627
306.794
334.76
320.005
319.896
307.651
336.302
320.697
320.774
308.478
289.381
284.339
282.388
283.505
279.436
278.081
292.934
287.385
285.202
285.225
280.969
279.428
299.46
293.477
291.016
287.903
282.956
281.096
356.511
349.172
345.875
334.635
328.174
325.463
319.012
312.748
310.321
306.207
299.298
296.336
289.813
284.019
281.756
355.078
345.616
341.605
334.013
325.234
321.496
318.931
310.755
307.406
305.117
297.55
294.7
288.492
283.102
281.029
318.659
310.621
305.147
300.429
320.274
311.236
305.293
300.346
318.739
310.72
305.28
300.554
320.826
311.555
305.559
300.59
318.667
310.809
305.587
300.945
321.248
311.878
305.983
301.017
322.788
312.703
306.223
300.988
324.106
313.57
306.698
301.245
320.154
311.686
306.146
301.288
317.945
311.193
306.312
301.927
318.139
310.793
305.88
301.431
316.764
310.558
306.013
301.923
321.819
312.534
306.46
301.349
318.943
311.791
306.647
302.142
323.149
313.332
306.911
301.685
319.788
312.36
307.053
302.518
316.021
309.69
305.013
300.732
312.84
308.631
304.863
301.209
316.008
309.734
305.124
300.865
313.065
308.746
304.949
301.303
316.102
309.853
305.346
301.158
313.746
309.051
305.145
301.492
315.834
309.904
305.582
301.577
314.272
309.334
305.385
301.77
315.487
309.963
305.784
302.014
310.197
307.847
304.606
302.078
308.619
307.456
304.504
302.379
310.721
308.046
304.715
302.164
309.205
307.671
304.608
302.45
311.667
308.423
304.902
302.295
310.204
308.058
304.788
302.572
312.801
308.916
305.203
302.518
311.322
308.535
305.041
302.747
313.86
309.487
305.571
302.764
312.227
309.041
305.338
302.962
315.314
310.559
306.219
303.185
313.494
310.108
306.083
303.522
314.626
310.035
305.884
302.957
312.863
309.578
305.694
303.222
315.932
311.064
306.539
303.414
314.131
310.66
306.479
303.836
316.597
311.58
306.927
303.74
314.838
311.225
306.905
304.189
295.337
291.563
288.69
286.769
285.809
295.332
291.573
288.699
286.776
285.814
295.411
291.604
288.715
286.785
285.821
295.43
291.629
288.732
286.797
285.831
295.514
291.657
288.745
286.805
285.836
295.547
291.695
288.772
286.823
285.851
295.695
291.788
288.83
286.861
285.88
295.91
291.92
288.912
286.916
285.923
295.65
291.738
288.795
286.837
285.861
295.781
291.783
288.817
286.851
285.872
295.599
291.695
288.766
286.818
285.847
295.713
291.738
288.789
286.832
285.857
295.783
291.821
288.846
286.872
285.888
295.905
291.858
288.864
286.882
285.896
295.987
291.945
288.923
286.923
285.927
296.085
291.966
288.931
286.926
285.93
295.362
291.558
288.683
286.764
285.805
295.393
291.555
288.679
286.761
285.802
295.419
291.587
288.701
286.775
285.813
295.436
291.578
288.692
286.769
285.809
295.512
291.635
288.728
286.793
285.827
295.514
291.619
288.716
286.784
285.82
295.616
291.682
288.755
286.81
285.84
295.6
291.666
288.744
286.802
285.834
295.672
291.71
288.771
286.82
285.848
534.694
532.219
534.176
531.699
533.551
531.202
533.579
531.354
535.256
533.133
538.757
539.203
537.817
537.493
539.065
539.772
539.101
539.651
565.267
571.351
572.629
572.917
572.979
558.756
569.569
572.226
572.83
572.959
565.305
571.371
572.635
572.919
572.98
558.777
569.595
572.232
572.834
572.96
565.292
571.383
572.64
572.92
572.98
558.754
569.61
572.239
572.835
572.96
565.461
571.433
572.652
572.923
572.981
558.933
569.666
572.253
572.838
572.961
565.955
571.539
572.675
572.928
572.982
559.526
569.798
572.281
572.844
572.962
566.345
571.577
572.678
572.928
572.982
561.095
570.1
572.338
572.855
572.964
566.273
571.578
572.68
572.929
572.982
560.519
569.986
572.318
572.852
572.964
566.34
571.569
572.675
572.927
572.981
561.342
570.157
572.349
572.857
572.965
566.374
571.577
572.677
572.927
572.981
561.358
570.172
572.35
572.857
572.965
429.914
465.175
462.802
425.621
409.126
410.596
412.408
415.256
424.019
427.942
453.725
462.638
461.539
471.079
437.915
442.388
425.796
429.128
419.133
421.161
372.93
355.124
308.158
301.56
304.604
301.342
306.22
371.341
365.696
347.827
355.489
352.295
328.232
338.546
334.496
322.302
326.278
320.597
367.938
341.576
325.297
321.389
329.455
324.926
316.756
315.161
313.355
309.575
318.594
315.498
369.59
348.068
356.253
336.749
329.427
342.05
317.46
310.216
320.472
354.271
337.739
322.808
306.624
286.938
343.462
331.092
317.304
301.863
283.788
304.655
299.731
293.26
285.642
277.299
298.769
294.804
289.547
283.327
276.51
301.493
297.085
291.256
284.383
276.867
298.574
294.639
289.419
283.244
276.481
302.933
298.291
292.168
284.953
277.061
352.755
335.257
319.928
304.025
285.878
347.028
329.546
314.445
299.159
282.41
337.247
325.288
311.911
297.431
281.621
339.311
323.348
309.147
295.022
280.573
336.785
321.14
307.208
293.558
279.936
321.764
313.395
303.157
291.663
279.339
329.795
319.323
307.241
294.127
280.205
326.422
316.562
305.074
292.642
279.63
316.855
309.561
300.398
289.966
278.751
320.049
311.941
302.002
290.882
279.049
315.414
308.408
299.549
289.435
278.566
351.256
334.921
320.133
304.323
286.025
332.865
322.413
310.157
296.462
281.28
319.471
311.747
302.094
291.085
279.159
316.194
309.179
300.27
289.989
278.789
323.012
314.663
304.361
292.612
279.745
319.286
311.763
302.269
291.302
279.265
312.234
306.02
297.994
288.614
278.324
310.831
304.838
297.069
288.002
278.102
309.224
303.473
296.001
287.301
277.852
305.903
300.748
293.991
286.072
277.439
313.761
307.159
298.715
288.974
278.423
311.104
305.033
297.183
288.052
278.114
352.334
336.274
321.622
305.718
286.732
338.093
326.875
313.994
299.443
282.666
344.415
330.912
317.032
301.614
283.629
329.283
319.942
308.577
295.532
280.887
323.152
314.955
304.733
292.937
279.873
333.457
323.115
310.884
297.076
281.546
312.841
306.502
298.331
288.808
278.386
306.471
301.226
294.363
286.313
277.524
315.435
308.602
299.879
289.769
278.718
507.522
543.695
501.141
538.806
478.438
520.746
484.6
525.704
490.085
476.821
519.574
493.131
466.16
452.025
494.083
465.745
523.691
537.241
551.894
558.143
517.607
530.861
548.074
554.981
532.001
508.099
511.453
495.631
521.298
543.063
542.746
544.036
506.128
511.806
520.513
520.961
477.569
482.021
549.364
553.124
525.228
532.836
558.545
562.492
550.397
564.682
563.826
569.683
544.389
562.27
561.047
568.484
532.011
556.971
547.273
563.578
558
567.568
562.321
569.086
470.754
463.073
479.182
465.63
443.109
435.898
450.634
437.735
504.866
492.591
496.239
489.483
485.581
466.792
487.772
466.506
456.27
438.511
457.92
437.892
511.241
494.076
513.645
494.124
528.548
556.203
519.199
548.872
520.809
552.026
515.573
545.789
534.222
558.734
521
550.511
536.488
559.814
521.289
551.268
538.072
523.974
559.435
549.759
530.444
517.154
556.165
545.625
519.174
507.588
550.543
539.732
462.159
434.966
487.2
511.157
544.492
432.095
457.935
481.24
503.298
535.134
432.643
459.223
485.132
510.435
539.848
504.681
491.51
519.935
507.782
500.992
488.434
519.33
506.74
494.976
482.81
518.259
505.434
425.308
416.809
451.165
441.785
473.427
462.842
494.6
482.974
519.314
506.759
424.525
413.853
452.042
444.796
477.92
470.577
501.89
492.712
523.508
512.255
453.66
450.116
451.248
447.279
423.331
407.621
420.651
402.972
479.622
478.63
481.248
479.684
448.138
444.877
447.398
444.038
418.311
400.476
417.269
399.046
476.723
476.889
476.324
476.557
506.088
504.858
527.586
525.458
506.302
504.042
527.178
523.445
504.691
504.225
527.463
525.876
503.271
503.13
526.279
524.701
483.4
479.831
497.224
492.434
480.367
476.264
495.96
490.291
474.54
470.367
494.096
487.19
409.456
404.369
434.359
428.94
454.996
449.171
474.262
468.547
493.722
484.461
403.908
397.889
438.509
431.876
462.866
454.847
481.638
471.76
494.772
482.688
413.663
407.047
422.199
413.731
438.915
427.703
454.959
437.778
396.271
377.241
399.779
379.63
395.757
379.028
399.717
381.25
398.025
393.144
397.189
392.021
381.523
384.554
417.664
419.949
444.134
447.226
400.289
403.321
400.021
401.508
385.996
387.231
362.162
344.143
363.976
345.383
363.546
343.742
364.964
344.979
366.227
343.052
368.988
345.172
370.323
345.677
369.698
344.706
396.359
387.985
400.701
388.425
418.031
410.257
423.845
411.369
382.262
368.374
379.06
368.228
403.418
388.404
404.106
387.462
427.802
411.725
428.957
410.895
384.048
368.149
384.228
367.116
364.4
341.056
351.56
333.121
361.928
339.482
351.395
332.877
365.62
341.754
351.264
332.843
365.474
341.487
350.237
332.004
358.429
353.098
341.161
336.128
359.708
354.736
340.544
335.75
361.834
357.969
339.649
335.641
391.044
411.312
374.521
358.554
336.778
409.843
390.952
374.171
357.482
334.663
407.711
386.578
367.362
350.716
332.177
346.304
338.133
328.952
317.963
348.779
341.177
329.313
318.753
352.696
345.947
329.887
319.89
403.488
395.703
384.821
377.809
368.267
362.128
351.438
344.37
329.471
319.891
399.675
387.857
378.985
367.47
360.47
349.536
344.059
332.658
327.234
316.801
374.489
357.931
372.981
354.614
396.2
379.109
394.424
374.532
354.959
338.761
356.21
341.05
372.909
352.754
371.75
351.14
393.793
371.835
392.655
370.124
354.942
337.454
353.731
335.935
338.362
323.505
323.359
310.936
340.175
325.124
324.868
312.363
337.468
322.505
322.124
309.55
337.186
321.489
321.481
309.06
331.158
328.757
299.952
298.001
335.18
332.344
301.185
298.991
340.297
335.962
302.586
298.437
388.72
383.704
371.282
366.732
356.068
351.916
336.698
330.608
301.628
295.241
377.283
372.319
357.143
352.583
339.156
334.814
320.015
315.16
294.996
290.142
327.428
316.337
308.935
302.939
328.045
316.443
308.789
302.681
326.92
316.096
308.831
302.868
327.62
316.163
308.666
302.655
325.955
315.67
308.841
303.057
326.808
315.701
308.609
302.777
326.417
315.245
307.983
302.18
325.398
314.487
307.337
301.685
324.74
314.904
308.42
302.875
321.53
313.824
308.265
303.395
324.36
315.051
308.828
303.422
321.908
314.231
308.634
303.782
324.668
314.568
307.923
302.405
321.079
313.386
307.864
303.105
324.121
314.032
307.417
302.052
320.5
312.898
307.468
302.852
326.171
316.066
309.195
303.511
324.238
315.639
309.438
304.312
325.677
315.864
309.146
303.51
323.946
315.511
309.374
304.286
324.871
315.525
309.1
303.605
323.523
315.283
309.254
304.246
323.465
314.997
309.023
303.844
322.868
314.977
309.147
304.274
322.05
314.5
308.927
304.175
322.245
315.25
309.426
305.653
320.842
315.032
309.495
306.235
322.183
315.171
309.381
305.625
320.819
314.955
309.441
306.194
321.971
314.989
309.239
305.505
320.661
314.784
309.309
306.097
321.503
314.684
309.088
305.39
320.254
314.508
309.143
305.976
320.65
314.231
308.892
305.284
319.428
314.112
308.922
305.828
318.721
313.149
308.173
304.791
317.182
312.973
308.229
305.291
319.617
313.697
308.548
305.052
318.231
313.57
308.608
305.592
317.927
312.615
307.74
304.437
316.268
312.369
307.781
304.923
317.251
312.094
307.329
304.087
315.528
311.784
307.334
304.549
296.806
292.453
289.238
287.131
286.089
296.736
292.429
289.227
287.124
286.084
296.752
292.415
289.214
287.114
286.076
296.656
292.376
289.194
287.102
286.066
296.695
292.37
289.184
287.094
286.06
296.563
292.314
289.154
287.075
286.046
296.403
292.219
289.096
287.037
286.016
296.178
292.084
289.014
286.983
285.975
296.564
292.29
289.135
287.062
286.035
296.59
292.268
289.115
287.047
286.024
296.678
292.343
289.164
287.081
286.05
296.681
292.315
289.143
287.066
286.038
296.413
292.203
289.082
287.027
286.008
296.456
292.19
289.068
287.017
286
296.206
292.079
289.006
286.977
285.969
296.278
292.082
289.002
286.973
285.966
296.904
292.479
289.249
287.137
286.093
296.989
292.497
289.255
287.14
286.096
296.867
292.452
289.231
287.125
286.084
296.958
292.475
289.241
287.131
286.088
296.813
292.409
289.203
287.106
286.069
296.9
292.436
289.216
287.114
286.075
296.775
292.37
289.176
287.087
286.055
296.823
292.388
289.186
287.093
286.059
296.741
292.345
289.16
287.077
286.046
531.418
530.034
531.578
530.164
532.054
530.63
533.147
531.613
535.342
533.694
538.828
539.32
537.884
537.688
539.118
539.847
539.121
539.678
564.825
571.282
572.617
572.915
572.979
558.079
569.432
572.2
572.826
572.958
564.955
571.316
572.625
572.917
572.979
558.261
569.486
572.211
572.829
572.959
565.088
571.348
572.633
572.919
572.98
558.476
569.541
572.224
572.832
572.959
565.398
571.419
572.648
572.922
572.98
558.873
569.637
572.245
572.837
572.96
565.968
571.539
572.674
572.928
572.982
559.578
569.794
572.278
572.843
572.962
566.361
571.58
572.678
572.928
572.982
561.134
570.108
572.34
572.855
572.964
566.293
571.581
572.681
572.929
572.982
560.571
569.993
572.318
572.851
572.964
566.351
571.571
572.676
572.927
572.981
561.366
570.162
572.35
572.857
572.965
566.378
571.578
572.677
572.927
572.981
561.367
570.174
572.351
572.857
572.965
430.14
464.996
462.051
426.243
419.97
425.926
417.617
425.017
446.353
462.284
450.151
464.218
284.184
284.833
286.28
288.602
291.928
296.375
284.735
285.396
286.863
289.194
292.464
296.741
283.764
283.557
284.458
284.323
286.009
286.04
288.516
288.864
292.063
292.812
296.579
297.439
302.022
308.855
317.013
326.539
335.643
341.595
302.045
308.307
315.364
322.701
329.126
333.119
283.12
281.591
279.539
277.089
274.391
283.707
282.088
279.916
277.325
274.471
285.014
283.195
280.757
277.85
274.65
287.11
284.97
282.105
278.691
274.936
290.11
287.506
284.028
279.89
275.343
294.113
290.886
286.587
281.486
275.885
283.618
282.014
279.86
277.29
274.459
284.215
282.519
280.243
277.529
274.541
285.54
283.64
281.095
278.06
274.721
287.643
285.42
282.445
278.903
275.008
290.591
287.911
284.334
280.081
275.408
294.438
291.157
286.792
281.614
275.929
282.741
281.27
279.295
276.937
274.339
282.554
281.111
279.174
276.861
274.314
283.369
281.801
279.698
277.189
274.425
283.246
281.698
279.62
277.14
274.408
284.769
282.988
280.6
277.752
274.616
284.798
283.013
280.619
277.763
274.62
287.033
284.906
282.056
278.66
274.925
287.348
285.172
282.259
278.787
274.968
290.233
287.612
284.109
279.941
275.36
290.909
288.184
284.542
280.211
275.452
294.299
291.044
286.707
281.56
275.91
295.074
291.698
287.201
281.867
276.014
299.18
295.15
289.811
283.496
276.569
305.278
300.259
293.668
285.905
277.391
312.487
306.259
298.197
288.752
278.373
320.761
313.081
303.364
292.062
279.548
328.426
319.305
308.114
295.206
280.735
333.344
323.272
311.163
297.265
281.539
299.197
295.163
289.822
283.504
276.572
304.791
299.855
293.367
285.719
277.328
311.055
305.085
297.318
288.198
278.179
317.504
310.438
301.366
290.76
279.069
323.082
315.038
304.853
292.995
279.863
326.527
317.873
307.012
294.392
280.365
284.299
285.184
286.887
289.498
293.16
298.006
284.853
285.755
287.479
290.092
293.669
298.268
283.881
283.678
284.816
284.696
286.632
286.695
289.449
289.858
293.364
294.194
298.368
299.393
304.071
311.219
319.485
328.737
337.144
342.125
303.865
310.312
317.364
324.425
330.295
333.532
283.225
281.68
279.607
277.132
274.406
284.026
282.36
280.124
277.455
274.516
285.565
283.665
281.116
278.075
274.726
287.925
285.665
282.636
279.025
275.049
291.231
288.466
284.764
280.353
275.501
295.602
292.162
287.57
282.106
276.097
283.726
282.105
279.93
277.333
274.474
284.542
282.797
280.456
277.662
274.586
286.1
284.118
281.46
278.29
274.799
288.46
286.117
282.979
279.239
275.122
291.688
288.85
285.054
280.535
275.563
295.832
292.353
287.712
282.195
276.128
282.847
281.36
279.363
276.98
274.354
282.663
281.204
279.245
276.906
274.329
283.693
282.078
279.909
277.321
274.47
283.585
281.986
279.84
277.277
274.455
285.335
283.47
280.968
277.983
274.695
285.392
283.519
281.005
278.006
274.703
287.881
285.629
282.609
279.008
275.044
288.251
285.943
282.848
279.157
275.095
291.417
288.625
284.885
280.43
275.527
292.168
289.262
285.37
280.732
275.63
295.933
292.446
287.786
282.241
276.143
296.859
293.232
288.384
282.614
276.27
301.056
296.766
291.061
284.287
276.84
307.454
302.146
295.137
286.84
277.712
314.783
308.269
299.776
289.767
278.724
322.828
314.914
304.825
293.013
279.881
329.859
320.592
309.155
295.895
280.981
333.855
323.736
311.54
297.518
281.631
300.863
296.597
290.93
284.205
276.812
306.634
301.449
294.605
286.506
277.598
312.902
306.693
298.574
289.001
278.456
319.108
311.844
302.473
291.473
279.317
324.177
316.004
305.62
293.492
280.036
326.915
318.218
307.286
294.571
280.428
373.738
355.815
311.009
303.869
307.804
303.907
309.308
380.805
379.201
357.191
369.706
335.657
348.002
328.759
333.193
326.262
374.247
348.3
331.496
326.491
335.247
329.393
320.007
319.15
318.248
313.733
324.051
320.092
372.117
350.074
360.717
339.781
333.257
347.236
321.283
313.859
324.959
355.153
338.57
323.528
307.148
287.153
344.159
331.743
317.851
302.244
283.934
307.284
302.015
295.04
286.777
277.689
300.884
296.628
290.958
284.222
276.817
304.435
299.631
293.234
285.64
277.299
300.926
296.668
290.989
284.24
276.823
305.778
300.757
294.087
286.175
277.481
363.559
345.741
328.921
310.331
288.36
362.461
344.459
327.066
307.745
285.457
346.893
334.47
319.623
302.647
283.502
355.837
339.296
322.655
304.166
283.832
329.012
320.044
308.588
295.247
280.596
339.417
328.404
314.814
299.195
281.996
323.061
315.181
304.944
292.944
279.791
326.936
318.368
307.32
294.423
280.296
320.883
313.387
303.597
292.096
279.497
358.167
341.666
325.968
308.467
287.72
339.546
328.634
315.318
299.932
282.531
325.418
317.124
306.44
293.933
280.155
321.023
313.493
303.721
292.235
279.571
328.589
319.725
308.468
295.319
280.698
323.521
315.552
305.308
293.287
279.959
315.266
308.688
300.1
289.972
278.794
314.554
308.114
299.654
289.666
278.678
313.788
307.489
299.17
289.341
278.558
309.75
304.101
296.615
287.75
278.017
318.919
311.758
302.388
291.359
279.252
315.404
308.829
300.188
289.991
278.786
355.078
338.865
323.864
307.339
287.404
340.082
328.716
315.528
300.495
283.061
349.01
335.266
320.739
304.193
284.599
332.207
322.599
310.746
296.977
281.405
326.801
318.235
307.379
294.676
280.485
338.577
327.866
314.826
299.736
282.51
316.417
309.658
300.83
290.422
278.945
309.847
304.175
296.673
287.793
278.034
319.663
312.361
302.875
291.713
279.394
281.02
296.505
310.632
322.805
332.382
339.518
489.666
484.032
461.511
467.046
474.935
466.37
452.371
442.238
508.115
522.76
502.061
515.233
493.261
485.141
504.193
480.512
475.935
453.977
458.445
468.217
460.63
446.346
437.619
498.848
509.505
493.557
502.935
485.368
477.831
493.302
467.819
464.46
443.472
446.768
458.433
452.256
437.535
430.121
484.718
495.105
480.483
489.889
474.183
467.792
482.029
454.771
452.277
432.493
435.034
447.449
442.116
427.679
421.255
471.471
482.518
468.054
478.228
462.921
456.797
471.249
445.346
443.315
424.49
426.65
439.12
434.493
420.27
414.369
461.498
473.287
458.573
469.842
454.418
449.001
463.749
438.971
437.168
419.021
420.988
433.395
429.328
415.103
409.601
454.942
468.297
452.258
464.946
448.795
443.955
458.846
413.806
410.746
435.529
439.687
406.473
401.17
428.739
420.396
392.108
372.331
391.12
373.854
387.373
386.72
376.299
409.768
406.906
430.042
433.675
402.895
397.933
424.002
416.239
387.65
368.388
386.81
370.085
383.277
383.067
372.34
403.321
400.777
421.853
424.804
397.193
392.627
416.794
410.051
383.027
363.416
382.126
364.978
378.897
378.631
367.079
395.244
393.012
412.551
414.985
389.652
385.079
408.248
401.912
376.136
357.115
375.348
358.528
372.39
372.093
360.7
388.714
386.674
405.491
407.646
383.647
379.301
401.602
395.744
370.136
352.285
369.448
353.372
366.993
366.658
355.646
384.014
382.107
400.577
402.574
379.464
375.585
396.936
391.486
366.262
349.02
365.713
350.105
363.518
363.392
352.654
540.847
556.277
530.29
548.983
515.75
539.696
490.511
519.035
490.089
512.666
512.618
534.657
526.233
545.242
535.781
552.713
507.503
488.329
526.452
498.701
480.443
460.328
499.48
469.567
548.526
555.706
560.607
564.495
538.353
547.401
554.238
559.939
538.701
524.305
517.372
507.955
535.542
548.727
544.807
544.497
508.383
512.346
522.186
521.344
479.041
482.361
551.582
553.608
527.603
533.399
560.281
562.849
560.585
568.057
567.471
570.915
553.961
565.451
564.077
569.558
541.125
559.993
551.643
565.065
559.559
568.126
562.632
569.205
474.8
463.378
481.706
465.579
443.942
433.706
451.377
436.274
508.17
493.265
501.845
490.998
486.699
466.626
488.039
466.407
456.508
437.623
457.928
437.567
512.757
494.309
514.038
494.158
531.275
557.166
519.922
549.155
525.423
553.672
517.047
546.368
535.504
559.203
521.301
550.632
536.831
559.947
521.356
551.297
555.036
543.872
564.871
556.647
545.663
534.532
561.123
551.753
531.884
521.442
554.725
544.587
461.016
424.786
492.05
516.95
546.714
419.431
455.688
486.911
510.574
538.01
424.566
457.62
487.093
512.857
540.834
523.955
506.868
528.364
512.053
517.93
502.16
526.151
509.687
508.763
494.008
522.944
506.648
409.822
398.089
447.36
435.682
477.408
464.974
500.371
486.868
521.177
505.996
413.778
400.917
448.394
438.83
478.3
468.407
503.201
491.636
523.857
510.668
451.538
446.635
449.744
444.96
417.805
399.661
417.53
398.399
479.174
477.635
481.068
478.512
447.214
443.589
447.084
443.627
416.643
398.122
416.731
398.317
476.339
476.25
476.179
476.343
506.077
504.51
527.578
525.283
506.69
503.703
527.34
523.179
504.589
503.968
527.415
525.753
503.216
503.028
526.254
524.653
488.96
475.61
468.821
491.795
477.344
470.286
485.538
472.015
464.947
489.533
474.588
467.179
477.618
464.045
456.906
486.38
470.324
462.301
385.802
377.575
373.807
422.439
411.169
405.261
450.584
436.937
429.338
470.523
455.925
448.31
484.673
466.753
457.625
387.187
376.797
371.92
427.629
415.631
409.334
455.224
440.549
432.32
474.638
457.06
447.45
486.572
466.185
455.502
415.622
406.921
421.185
412.623
446.41
431.648
456.597
439.081
392.096
370.097
393.258
372.072
393.334
372.696
395.222
374.88
394.869
390.894
394.142
388.632
375.958
379.718
416.749
419.597
444.447
447.242
398.176
402.577
398.054
400.804
382.829
386.085
348.466
331.368
353.945
334.924
350.965
331.871
356.425
335.968
354.976
332.474
362.268
337.813
366.236
341.055
368.262
343.086
389.796
380.481
397.277
384.002
415.126
405.08
422.476
408.268
377.07
363.204
369.715
359.646
401.579
386.005
403.509
386.677
427.002
410.012
428.665
410.318
381.254
365.329
383.338
366.202
357.781
334.861
346.313
328.554
350.938
330.542
342.992
326.049
361.979
338.07
348.351
330.205
364.318
340.271
349.292
331.137
331.737
319.954
324.349
316.308
333.873
322.586
324.579
316.992
338.095
328.567
325.385
319.121
370.964
394.307
353.729
341.025
325.057
389.469
366.335
347.1
334.868
320.924
394.014
370.875
352.357
337.948
322.971
309.746
299.872
308.024
298.782
312.892
303.041
309.427
300.331
319.079
309.219
312.189
303.199
379.459
367.832
356.523
345.114
339.309
328.997
327.115
316.987
315.618
306.65
382.82
368.652
360.326
346.665
343.277
331.01
329.986
318.238
317.772
307.97
364.475
346.325
367.547
348.306
387.425
367.883
389.776
368.461
349.415
332.917
346.493
330.692
370.15
349.58
370.887
350.179
391.452
368.778
391.92
369.197
352.062
334.474
352.829
335.03
333.349
318.739
319.383
307.467
331.767
316.998
318.623
306.791
334.755
320.002
319.892
307.648
336.297
320.694
320.77
308.476
289.311
284.257
282.3
283.518
279.424
278.061
292.942
287.393
285.21
285.221
280.97
279.43
299.462
293.48
291.019
287.901
282.956
281.097
356.508
349.171
345.874
334.632
328.173
325.462
319.011
312.748
310.322
306.207
299.299
296.337
289.812
284.018
281.756
355.075
345.615
341.604
334.011
325.233
321.495
318.929
310.754
307.406
305.116
297.55
294.7
288.491
283.102
281.029
318.652
310.615
305.139
300.419
320.256
311.224
305.281
300.334
318.735
310.718
305.279
300.553
320.824
311.553
305.558
300.589
318.663
310.807
305.586
300.945
321.244
311.877
305.982
301.017
322.784
312.701
306.222
300.987
324.103
313.569
306.697
301.244
320.151
311.684
306.144
301.287
317.942
311.191
306.311
301.927
318.136
310.791
305.878
301.43
316.76
310.556
306.012
301.922
321.815
312.532
306.458
301.349
318.94
311.789
306.645
302.141
323.146
313.33
306.909
301.684
319.785
312.359
307.052
302.517
316.019
309.686
305.008
300.723
312.835
308.627
304.858
301.202
316.005
309.732
305.123
300.865
313.063
308.744
304.948
301.302
316.099
309.851
305.344
301.158
313.743
309.049
305.144
301.491
315.831
309.902
305.581
301.576
314.269
309.332
305.384
301.769
315.484
309.961
305.783
302.014
310.192
307.843
304.602
302.071
308.609
307.45
304.5
302.375
310.719
308.045
304.714
302.164
309.205
307.671
304.607
302.449
311.664
308.421
304.901
302.294
310.203
308.057
304.787
302.571
312.798
308.914
305.202
302.517
311.32
308.533
305.04
302.746
313.857
309.485
305.569
302.763
312.224
309.039
305.336
302.961
315.311
310.557
306.217
303.184
313.491
310.106
306.082
303.521
314.623
310.033
305.883
302.955
312.86
309.576
305.693
303.221
315.929
311.062
306.538
303.413
314.128
310.658
306.478
303.835
316.594
311.578
306.926
303.739
314.836
311.223
306.904
304.188
295.333
291.561
288.689
286.769
285.809
295.327
291.57
288.697
286.775
285.813
295.411
291.604
288.715
286.785
285.821
295.429
291.629
288.732
286.797
285.831
295.513
291.657
288.745
286.805
285.837
295.547
291.695
288.772
286.823
285.851
295.695
291.787
288.83
286.861
285.88
295.91
291.92
288.912
286.916
285.923
295.65
291.738
288.795
286.837
285.862
295.78
291.783
288.817
286.851
285.872
295.599
291.695
288.767
286.818
285.847
295.713
291.738
288.789
286.832
285.858
295.782
291.821
288.846
286.872
285.888
295.905
291.858
288.864
286.882
285.896
295.987
291.945
288.923
286.923
285.928
296.085
291.966
288.931
286.926
285.93
295.359
291.556
288.683
286.764
285.805
295.391
291.554
288.678
286.76
285.802
295.418
291.587
288.701
286.775
285.814
295.436
291.577
288.692
286.769
285.809
295.512
291.635
288.728
286.793
285.827
295.514
291.619
288.716
286.784
285.82
295.615
291.682
288.755
286.81
285.84
295.6
291.666
288.744
286.802
285.834
295.671
291.71
288.771
286.82
285.848
534.761
532.294
534.185
531.708
533.554
531.204
533.579
531.354
535.255
533.132
538.755
539.201
537.815
537.492
539.063
539.77
539.099
539.649
565.32
571.364
572.632
572.918
572.979
558.79
569.578
572.228
572.831
572.959
565.302
571.37
572.635
572.919
572.98
558.781
569.596
572.233
572.834
572.96
565.291
571.383
572.64
572.92
572.98
558.755
569.61
572.239
572.835
572.96
565.461
571.433
572.652
572.923
572.981
558.933
569.666
572.253
572.838
572.961
565.955
571.539
572.675
572.928
572.982
559.526
569.798
572.281
572.844
572.962
566.344
571.576
572.678
572.928
572.982
561.095