/*--------------------------------*- C++ -*----------------------------------*\
  =========                 |
  \\      /  F ield         | OpenFOAM: The Open Source CFD Toolbox
   \\    /   O peration     | Website:  https://openfoam.org
    \\  /    A nd           | Version:  11
     \\/     M anipulation  |
\*---------------------------------------------------------------------------*/
FoamFile
{
    format      ascii;
    class       volScalarField;
    location    "2.5";
    object      epsilon;
}
// * * * * * * * * * * * * * * * * * * * * * * * * * * * * * * * * * * * * * //

dimensions      [0 2 -3 0 0 0 0];

internalField   nonuniform List<scalar> 
700
(
0.000209241
0.000209241
0.000209241
0.000209241
0.000209241
0.000209241
0.000209241
0.000209241
0.000209241
0.000209241
0.000209241
0.000209241
0.000209241
0.000209241
0.000209241
0.000209241
0.000209241
0.000209241
0.000209241
0.000209241
0.000209241
0.000209241
0.000209241
0.000209241
0.000209241
0.000209241
0.000209241
0.000209241
0.000209241
0.000209241
0.000209241
0.000209241
0.000209241
0.000209241
0.000209241
0.000209241
0.000209241
0.000209241
0.000209241
0.000209241
0.000209241
0.000209241
0.000209241
0.000209241
0.000209241
0.000209241
0.000209241
0.000209241
0.000209241
0.000209241
0.000209241
0.000209241
0.000209241
0.000209241
0.000209241
0.000209241
0.000209241
0.000209241
0.000209241
0.000209241
0.000209241
0.000209241
0.000209241
0.000209241
0.000209241
0.000209241
0.000209241
0.000209241
0.000209241
0.000209241
0.000209242
0.000209241
0.000209241
0.000209241
0.000209241
0.000209241
0.000209241
0.000209241
0.000209241
0.00020924
0.000209276
0.000209254
0.000209244
0.000209241
0.000209241
0.000209241
0.000209242
0.000209242
0.000209238
0.000209224
0.0002106
0.000209669
0.000209329
0.000209254
0.000209246
0.000209255
0.000209272
0.000209276
0.00020917
0.000208648
0.000222329
0.000213889
0.000210241
0.000209391
0.000209276
0.000209332
0.000209422
0.000209472
0.000209428
0.000209602
0.000218286
0.000214424
0.000210884
0.000209639
0.000209307
0.000209267
0.000209327
0.000209402
0.000209404
0.000209418
0.000214759
0.000213957
0.000211223
0.000209929
0.000209428
0.000209268
0.000209246
0.000209289
0.000209341
0.000209377
0.000210512
0.000212388
0.000211001
0.000210069
0.000209574
0.000209348
0.000209257
0.000209234
0.00020925
0.000209282
0.000205447
0.000209482
0.000209847
0.000209737
0.000209541
0.00020939
0.000209302
0.000209257
0.00020924
0.000209242
0.000200474
0.00020578
0.000207831
0.000208772
0.000209138
0.000209248
0.000209265
0.000209257
0.000209247
0.000209243
0.00019692
0.000202596
0.00020579
0.000207587
0.000208513
0.000208948
0.000209133
0.000209204
0.000209227
0.000209233
0.000195872
0.00020131
0.000204872
0.000206997
0.000208168
0.000208764
0.000209043
0.000209161
0.000209205
0.000209212
0.000197863
0.000202596
0.000205668
0.000207456
0.000208415
0.000208888
0.000209105
0.000209203
0.000209256
0.000209302
0.000203655
0.000206313
0.000207784
0.000208585
0.000208981
0.000209166
0.000209271
0.000209382
0.000209561
0.000209852
0.000209368
0.000208854
0.000208934
0.00020908
0.000209175
0.000209228
0.000209265
0.000209312
0.000209382
0.00020946
0.000209386
0.000209251
0.000209209
0.000209214
0.000209228
0.00020924
0.000209252
0.000209268
0.000209292
0.000209315
0.000209331
0.00020929
0.00020926
0.000209247
0.000209243
0.000209243
0.000209245
0.00020925
0.000209256
0.000209262
0.000209281
0.000209268
0.000209255
0.000209247
0.000209243
0.000209242
0.000209242
0.000209243
0.000209245
0.000209246
0.000209255
0.000209252
0.000209247
0.000209244
0.000209242
0.000209241
0.000209241
0.000209241
0.000209242
0.000209242
0.000209245
0.000209244
0.000209243
0.000209242
0.000209241
0.000209241
0.000209241
0.000209241
0.000209241
0.000209241
0.000209242
0.000209242
0.000209241
0.000209241
0.000209241
0.000209241
0.000209241
0.000209241
0.000209241
0.000209241
0.000209241
0.000209241
0.000209241
0.000209241
0.000209241
0.000209241
0.000209241
0.000209241
0.000209241
0.000209241
0.000209241
0.000209241
0.000209241
0.000209241
0.000209241
0.000209241
0.000209241
0.000209241
0.000209241
0.000209241
0.000209241
0.000209241
0.000209241
0.000209241
0.000209241
0.000209241
0.000209241
0.000209241
0.000209241
0.000209241
0.000209241
0.000209241
0.000209241
0.000209241
0.000209241
0.000209241
0.000209241
0.000209241
0.000209241
0.000209241
0.000209241
0.000209241
0.000209241
0.000209241
0.000209241
0.000209241
0.000209241
0.000209241
0.000209241
0.000209241
0.000209241
0.000209241
0.000209241
0.000209241
0.000209241
0.000209241
0.000209241
0.000209241
0.000209241
0.000209241
0.000209241
0.000209241
0.000209241
0.000209241
0.000209241
0.000209241
0.000209241
0.000209241
0.000209241
0.000209241
0.000209241
0.000209241
0.000209241
0.000209241
0.000209241
0.000209241
0.000209241
0.000209241
0.000209241
0.000209241
0.000209241
0.000209241
0.000209241
0.000209241
0.000209241
0.000209241
0.000209241
0.000209241
0.000209241
0.000209241
0.000209241
0.000209241
0.000209241
0.000209241
0.000209241
0.000209241
0.000209241
0.000209241
0.000209241
0.000209241
0.000209241
0.000209241
0.000209241
0.000209241
0.000209241
0.000209241
0.000209241
0.000209241
0.000209241
0.000209241
0.000209241
0.000209241
0.000209241
0.000209241
0.000209241
0.000209241
0.000209241
0.000209241
0.000209241
0.000209241
0.000209241
0.000209241
0.000209241
0.000209241
0.000209241
0.000209241
0.000209241
0.000209241
0.000209241
0.000209241
0.000209699
0.000209816
0.000209949
0.000210075
0.00021017
0.000210226
0.000210227
0.000210183
0.000210116
0.000210043
0.000209453
0.000209564
0.00020968
0.000209758
0.000209772
0.000209725
0.000209638
0.000209537
0.000209439
0.00020935
0.000209333
0.000209399
0.000209459
0.000209481
0.000209453
0.000209392
0.000209324
0.000209266
0.000209227
0.000209208
0.000209281
0.000209309
0.00020933
0.000209327
0.000209301
0.000209268
0.000209241
0.000209227
0.000209224
0.00020923
0.000209271
0.000209278
0.000209277
0.000209268
0.000209254
0.000209242
0.000209236
0.000209236
0.000209238
0.00020924
0.000209299
0.000209301
0.00020928
0.00020926
0.000209247
0.00020924
0.000209237
0.000209237
0.000209237
0.000209238
0.000209391
0.000209417
0.000209352
0.000209293
0.000209257
0.000209239
0.000209231
0.000209229
0.000209232
0.000209245
0.000209617
0.000209759
0.000209598
0.000209428
0.000209314
0.000209246
0.000209209
0.000209191
0.000209182
0.000209173
0.000210125
0.000210641
0.000210304
0.000209888
0.00020957
0.000209348
0.000209186
0.000209021
0.000208713
0.00020811
0.000210767
0.000212605
0.000212367
0.000211854
0.000211421
0.000211075
0.00021072
0.000210009
0.000207805
0.000201419
0.000209479
0.000209366
0.000209294
0.00020926
0.000209245
0.000209231
0.000209187
0.000209041
0.000208578
0.000207151
0.000209317
0.000209288
0.000209263
0.000209247
0.000209235
0.000209214
0.000209162
0.000209036
0.000208779
0.000208395
0.000209263
0.000209255
0.000209248
0.000209242
0.000209236
0.000209222
0.000209192
0.00020913
0.000209027
0.000208918
0.000209246
0.000209245
0.000209243
0.000209241
0.000209238
0.000209232
0.000209219
0.000209195
0.000209161
0.00020913
0.000209242
0.000209242
0.000209241
0.000209241
0.00020924
0.000209238
0.000209233
0.000209226
0.000209215
0.000209207
0.000209241
0.000209241
0.000209241
0.000209241
0.00020924
0.00020924
0.000209239
0.000209236
0.000209234
0.000209232
0.000209241
0.000209241
0.000209241
0.000209241
0.000209241
0.000209241
0.00020924
0.00020924
0.000209239
0.000209239
0.000209241
0.000209241
0.000209241
0.000209241
0.000209241
0.000209241
0.000209241
0.000209241
0.00020924
0.00020924
0.000209241
0.000209241
0.000209241
0.000209241
0.000209241
0.000209241
0.000209241
0.000209241
0.000209241
0.000209241
0.000209241
0.000209241
0.000209241
0.000209241
0.000209241
0.000209241
0.000209241
0.000209241
0.000209241
0.000209241
0.000209241
0.000209241
0.000209241
0.000209241
0.000209241
0.000209241
0.000209241
0.000209241
0.000209241
0.000209241
0.000209241
0.000209241
0.000209241
0.000209241
0.000209241
0.000209241
0.000209241
0.000209241
0.000209241
0.000209241
0.000209241
0.000209241
0.000209241
0.000209241
0.000209241
0.000209241
0.000209241
0.000209241
0.000209241
0.000209241
0.000209241
0.000209241
0.000209241
0.000209241
0.000209241
0.000209241
0.000209241
0.000209241
0.000209241
0.000209241
0.000209241
0.000209241
0.000209241
0.000209241
0.000209241
0.000209241
0.000209241
0.000209241
0.000209241
0.000209241
0.000209241
0.000209241
0.000209241
0.000209241
0.000209241
0.000209241
0.000209241
0.000209241
0.000209241
0.000209241
0.000209241
0.000209241
0.000209241
0.000209241
0.000209241
0.000209241
0.000209241
0.000209241
0.000209241
0.000209241
0.000209241
0.000209241
0.000209241
0.000209241
0.000209241
0.000209241
0.000209241
0.000209241
0.000209241
0.000209241
0.000209241
0.000209241
0.000209241
0.000209241
0.000209241
0.000209241
0.000209241
0.000209241
0.000209241
0.000209241
0.000209241
0.000209241
0.000209241
0.000209241
0.000209241
0.000209241
0.000209241
0.000209241
0.000209241
0.000209241
)
;

boundaryField
{
    defaultFaces
    {
        type            empty;
    }
}


// ************************************************************************* //
