/*--------------------------------*- C++ -*----------------------------------*\
  =========                 |
  \\      /  F ield         | OpenFOAM: The Open Source CFD Toolbox
   \\    /   O peration     | Website:  https://openfoam.org
    \\  /    A nd           | Version:  11
     \\/     M anipulation  |
\*---------------------------------------------------------------------------*/
FoamFile
{
    format      ascii;
    class       volScalarField;
    location    "2.5";
    object      k;
}
// * * * * * * * * * * * * * * * * * * * * * * * * * * * * * * * * * * * * * //

dimensions      [0 2 -2 0 0 0 0];

internalField   nonuniform List<scalar> 
700
(
0.000587254
0.000587254
0.000587254
0.000587254
0.000587254
0.000587254
0.000587254
0.000587254
0.000587254
0.000587254
0.000587254
0.000587254
0.000587254
0.000587254
0.000587254
0.000587254
0.000587254
0.000587254
0.000587254
0.000587254
0.000587254
0.000587254
0.000587254
0.000587254
0.000587254
0.000587254
0.000587254
0.000587254
0.000587254
0.000587254
0.000587254
0.000587254
0.000587254
0.000587254
0.000587254
0.000587254
0.000587254
0.000587254
0.000587254
0.000587254
0.000587254
0.000587254
0.000587254
0.000587254
0.000587254
0.000587254
0.000587254
0.000587254
0.000587254
0.000587254
0.000587254
0.000587254
0.000587254
0.000587254
0.000587254
0.000587254
0.000587254
0.000587254
0.000587254
0.000587254
0.000587254
0.000587254
0.000587254
0.000587254
0.000587254
0.000587254
0.000587254
0.000587254
0.000587254
0.000587254
0.000587257
0.000587256
0.000587255
0.000587254
0.000587254
0.000587254
0.000587254
0.000587254
0.000587254
0.000587253
0.000587381
0.000587305
0.000587267
0.000587257
0.000587255
0.000587256
0.000587258
0.000587257
0.000587242
0.000587198
0.000591634
0.000588741
0.000587591
0.000587309
0.000587274
0.0005873
0.000587345
0.000587332
0.000586964
0.000585394
0.000626963
0.000602033
0.000590707
0.000587839
0.000587379
0.000587484
0.000587635
0.000587612
0.000587309
0.000587646
0.000615171
0.000603648
0.000592802
0.000588721
0.000587545
0.000587368
0.000587495
0.000587607
0.000587454
0.000587311
0.000604231
0.000601889
0.000593768
0.000589675
0.000587984
0.000587414
0.000587323
0.000587424
0.000587507
0.00058749
0.000591135
0.000596686
0.000592813
0.000590033
0.00058845
0.000587679
0.000587359
0.000587278
0.000587312
0.000587365
0.000575768
0.000587526
0.000588908
0.000588772
0.000588248
0.000587787
0.00058749
0.000587333
0.000587272
0.000587269
0.000560863
0.000576164
0.000582426
0.000585487
0.000586781
0.000587225
0.000587323
0.000587311
0.000587283
0.000587265
0.000550313
0.000566551
0.000576025
0.000581596
0.00058462
0.000586127
0.000586812
0.000587094
0.000587197
0.000587228
0.000547262
0.000562744
0.000573204
0.000579698
0.000583456
0.000585473
0.000586474
0.000586931
0.000587117
0.000587174
0.000553267
0.000566731
0.000575747
0.000581222
0.000584313
0.000585927
0.000586711
0.000587078
0.000587266
0.000587403
0.000570406
0.000578018
0.000582417
0.000584948
0.000586273
0.000586922
0.00058727
0.000587564
0.000587967
0.000588577
0.000587079
0.00058573
0.000586086
0.000586619
0.000586979
0.000587177
0.000587301
0.000587424
0.000587584
0.000587752
0.00058747
0.000587123
0.000587054
0.000587115
0.000587187
0.000587238
0.000587278
0.000587323
0.00058738
0.000587432
0.000587468
0.000587359
0.000587285
0.000587257
0.000587253
0.000587257
0.000587265
0.000587278
0.000587295
0.00058731
0.000587371
0.000587335
0.000587297
0.000587274
0.000587263
0.000587259
0.000587259
0.000587262
0.000587266
0.00058727
0.000587302
0.00058729
0.000587276
0.000587266
0.000587259
0.000587257
0.000587256
0.000587257
0.000587257
0.000587258
0.000587271
0.000587267
0.000587262
0.000587259
0.000587256
0.000587255
0.000587255
0.000587255
0.000587255
0.000587255
0.000587259
0.000587258
0.000587257
0.000587256
0.000587255
0.000587255
0.000587255
0.000587255
0.000587255
0.000587255
0.000587256
0.000587255
0.000587255
0.000587255
0.000587255
0.000587254
0.000587254
0.000587254
0.000587254
0.000587254
0.000587255
0.000587255
0.000587255
0.000587254
0.000587254
0.000587254
0.000587254
0.000587254
0.000587254
0.000587254
0.000587254
0.000587254
0.000587254
0.000587254
0.000587254
0.000587254
0.000587254
0.000587254
0.000587254
0.000587254
0.000587254
0.000587254
0.000587254
0.000587254
0.000587254
0.000587254
0.000587254
0.000587254
0.000587254
0.000587254
0.000587254
0.000587254
0.000587254
0.000587254
0.000587254
0.000587254
0.000587254
0.000587254
0.000587254
0.000587254
0.000587254
0.000587254
0.000587254
0.000587254
0.000587254
0.000587254
0.000587254
0.000587254
0.000587254
0.000587254
0.000587254
0.000587254
0.000587254
0.000587254
0.000587254
0.000587254
0.000587254
0.000587254
0.000587254
0.000587254
0.000587254
0.000587254
0.000587254
0.000587254
0.000587254
0.000587254
0.000587254
0.000587254
0.000587254
0.000587254
0.000587254
0.000587254
0.000587254
0.000587254
0.000587254
0.000587254
0.000587254
0.000587254
0.000587254
0.000587254
0.000587254
0.000587254
0.000587254
0.000587254
0.000587254
0.000587254
0.000587254
0.000587254
0.000587254
0.000587254
0.000587254
0.000587254
0.000587254
0.000587254
0.000587254
0.000587254
0.000587254
0.000587254
0.000587254
0.000587254
0.000587254
0.000587254
0.000587254
0.000587254
0.000587254
0.000587254
0.000587254
0.000587254
0.000587254
0.000587254
0.000587254
0.000587254
0.000587254
0.000587254
0.000587254
0.000587254
0.000587254
0.000587254
0.000587254
0.000587254
0.000588245
0.000588486
0.000588757
0.000589013
0.000589206
0.000589316
0.000589323
0.000589241
0.000589109
0.00058896
0.000587734
0.000587968
0.000588209
0.00058837
0.0005884
0.000588304
0.000588126
0.000587915
0.000587707
0.000587515
0.000587479
0.000587621
0.000587751
0.000587796
0.000587736
0.000587606
0.000587457
0.000587328
0.000587235
0.000587183
0.000587365
0.000587429
0.000587473
0.000587464
0.000587404
0.000587326
0.000587263
0.000587226
0.000587216
0.000587224
0.000587358
0.000587375
0.000587364
0.000587333
0.000587293
0.000587261
0.000587244
0.000587241
0.000587245
0.000587253
0.000587463
0.000587477
0.000587403
0.00058733
0.000587281
0.000587255
0.000587245
0.000587242
0.000587243
0.000587249
0.000587766
0.000587877
0.000587671
0.000587465
0.000587332
0.000587261
0.000587228
0.000587217
0.000587224
0.000587257
0.00058847
0.000588985
0.000588507
0.000587953
0.000587561
0.000587322
0.000587185
0.000587107
0.00058704
0.000586935
0.000589978
0.000591667
0.000590733
0.000589467
0.000588467
0.000587751
0.000587208
0.000586617
0.000585515
0.00058355
0.000591838
0.000597353
0.000596759
0.000595245
0.00059393
0.000592863
0.000591718
0.000589382
0.000582548
0.000564217
0.000587787
0.000587548
0.000587386
0.000587307
0.00058727
0.00058723
0.000587106
0.000586694
0.000585391
0.000581391
0.000587437
0.000587372
0.000587311
0.00058727
0.000587233
0.000587164
0.000586998
0.000586617
0.000585867
0.000584771
0.00058731
0.000587293
0.000587273
0.000587256
0.000587233
0.000587186
0.000587083
0.000586883
0.000586568
0.000586243
0.00058727
0.000587265
0.000587259
0.000587253
0.000587242
0.00058722
0.000587173
0.000587091
0.000586978
0.00058688
0.000587258
0.000587257
0.000587256
0.000587253
0.000587249
0.000587241
0.000587224
0.000587195
0.000587159
0.000587131
0.000587255
0.000587255
0.000587255
0.000587254
0.000587253
0.00058725
0.000587245
0.000587236
0.000587226
0.000587218
0.000587255
0.000587255
0.000587254
0.000587254
0.000587254
0.000587253
0.000587252
0.000587249
0.000587247
0.000587245
0.000587254
0.000587254
0.000587254
0.000587254
0.000587254
0.000587254
0.000587254
0.000587253
0.000587253
0.000587252
0.000587254
0.000587254
0.000587254
0.000587254
0.000587254
0.000587254
0.000587254
0.000587254
0.000587254
0.000587254
0.000587254
0.000587254
0.000587254
0.000587254
0.000587254
0.000587254
0.000587254
0.000587254
0.000587254
0.000587254
0.000587254
0.000587254
0.000587254
0.000587254
0.000587254
0.000587254
0.000587254
0.000587254
0.000587254
0.000587254
0.000587254
0.000587254
0.000587254
0.000587254
0.000587254
0.000587254
0.000587254
0.000587254
0.000587254
0.000587254
0.000587254
0.000587254
0.000587254
0.000587254
0.000587254
0.000587254
0.000587254
0.000587254
0.000587254
0.000587254
0.000587254
0.000587254
0.000587254
0.000587254
0.000587254
0.000587254
0.000587254
0.000587254
0.000587254
0.000587254
0.000587254
0.000587254
0.000587254
0.000587254
0.000587254
0.000587254
0.000587254
0.000587254
0.000587254
0.000587254
0.000587254
0.000587254
0.000587254
0.000587254
0.000587254
0.000587254
0.000587254
0.000587254
0.000587254
0.000587254
0.000587254
0.000587254
0.000587254
0.000587254
0.000587254
0.000587254
0.000587254
0.000587254
0.000587254
0.000587254
0.000587254
0.000587254
0.000587254
0.000587254
0.000587254
0.000587254
0.000587254
0.000587254
0.000587254
0.000587254
0.000587254
0.000587254
0.000587254
0.000587254
0.000587254
0.000587254
0.000587254
0.000587254
0.000587254
0.000587254
0.000587254
0.000587254
0.000587254
0.000587254
0.000587254
0.000587254
0.000587254
0.000587254
0.000587254
0.000587254
)
;

boundaryField
{
    defaultFaces
    {
        type            empty;
    }
}


// ************************************************************************* //
