/*--------------------------------*- C++ -*----------------------------------*\
  =========                 |
  \\      /  F ield         | OpenFOAM: The Open Source CFD Toolbox
   \\    /   O peration     | Website:  https://openfoam.org
    \\  /    A nd           | Version:  11
     \\/     M anipulation  |
\*---------------------------------------------------------------------------*/
FoamFile
{
    format      ascii;
    class       volScalarField;
    location    "2.5";
    object      nut;
}
// * * * * * * * * * * * * * * * * * * * * * * * * * * * * * * * * * * * * * //

dimensions      [0 2 -1 0 0 0 0];

internalField   nonuniform List<scalar> 
700
(
0.000148337
0.000148337
0.000148337
0.000148337
0.000148337
0.000148337
0.000148337
0.000148337
0.000148337
0.000148337
0.000148337
0.000148337
0.000148337
0.000148337
0.000148337
0.000148337
0.000148337
0.000148337
0.000148337
0.000148337
0.000148337
0.000148337
0.000148337
0.000148337
0.000148337
0.000148337
0.000148337
0.000148337
0.000148337
0.000148337
0.000148337
0.000148337
0.000148337
0.000148337
0.000148337
0.000148337
0.000148337
0.000148337
0.000148337
0.000148337
0.000148337
0.000148337
0.000148337
0.000148337
0.000148337
0.000148337
0.000148337
0.000148337
0.000148337
0.000148337
0.000148337
0.000148337
0.000148337
0.000148337
0.000148337
0.000148337
0.000148337
0.000148337
0.000148337
0.000148337
0.000148337
0.000148337
0.000148337
0.000148337
0.000148337
0.000148337
0.000148337
0.000148337
0.000148337
0.000148337
0.000148338
0.000148337
0.000148337
0.000148337
0.000148337
0.000148337
0.000148337
0.000148337
0.000148337
0.000148336
0.000148375
0.000148353
0.000148341
0.000148338
0.000148337
0.000148337
0.000148338
0.000148337
0.000148333
0.00014832
0.000149586
0.000148784
0.000148444
0.000148355
0.000148343
0.00014835
0.00014836
0.000148351
0.00014824
0.000147817
0.000159122
0.000152509
0.000149372
0.000148525
0.000148375
0.000148388
0.000148401
0.000148354
0.000148232
0.000148279
0.00015603
0.000152945
0.000149974
0.000148795
0.000148437
0.000148376
0.000148397
0.0001484
0.000148322
0.00014824
0.000153002
0.000152388
0.000150222
0.000149072
0.000148572
0.000148398
0.000148368
0.000148389
0.000148393
0.000148359
0.000149396
0.00015087
0.000149897
0.000149154
0.000148705
0.000148475
0.000148378
0.000148353
0.00014836
0.000148364
0.000145223
0.000148303
0.000148742
0.000148752
0.000148626
0.0001485
0.000148412
0.000148365
0.000148346
0.000148343
0.000141221
0.000145188
0.000146897
0.000147776
0.000148171
0.000148317
0.000148354
0.000148354
0.000148346
0.000148341
0.000138412
0.00014259
0.000145111
0.000146651
0.000147522
0.000147975
0.00014819
0.000148282
0.000148317
0.000148329
0.000137613
0.000141579
0.000144337
0.000146111
0.000147178
0.000147775
0.000148083
0.00014823
0.000148293
0.000148317
0.000139235
0.000142681
0.000145057
0.000146555
0.000147436
0.000147916
0.000148158
0.000148274
0.000148332
0.000148368
0.000143786
0.000145746
0.000146926
0.000147636
0.000148025
0.000148222
0.000148323
0.000148393
0.000148469
0.000148571
0.000148159
0.00014784
0.000147964
0.00014813
0.000148244
0.000148307
0.000148343
0.000148372
0.000148403
0.000148433
0.000148343
0.000148264
0.000148258
0.000148285
0.000148311
0.000148329
0.000148341
0.000148352
0.000148364
0.000148374
0.000148381
0.000148355
0.000148339
0.000148334
0.000148335
0.000148337
0.000148339
0.000148343
0.000148346
0.000148349
0.000148367
0.000148358
0.000148348
0.000148342
0.000148339
0.000148338
0.000148338
0.000148339
0.00014834
0.000148341
0.000148351
0.000148347
0.000148343
0.00014834
0.000148338
0.000148337
0.000148337
0.000148337
0.000148338
0.000148338
0.000148342
0.000148341
0.000148339
0.000148338
0.000148337
0.000148337
0.000148337
0.000148337
0.000148337
0.000148337
0.000148338
0.000148338
0.000148338
0.000148337
0.000148337
0.000148337
0.000148337
0.000148337
0.000148337
0.000148337
0.000148337
0.000148337
0.000148337
0.000148337
0.000148337
0.000148337
0.000148337
0.000148337
0.000148337
0.000148337
0.000148337
0.000148337
0.000148337
0.000148337
0.000148337
0.000148337
0.000148337
0.000148337
0.000148337
0.000148337
0.000148337
0.000148337
0.000148337
0.000148337
0.000148337
0.000148337
0.000148337
0.000148337
0.000148337
0.000148337
0.000148337
0.000148337
0.000148337
0.000148337
0.000148337
0.000148337
0.000148337
0.000148337
0.000148337
0.000148337
0.000148337
0.000148337
0.000148337
0.000148337
0.000148337
0.000148337
0.000148337
0.000148337
0.000148337
0.000148337
0.000148337
0.000148337
0.000148337
0.000148337
0.000148337
0.000148337
0.000148337
0.000148337
0.000148337
0.000148337
0.000148337
0.000148337
0.000148337
0.000148337
0.000148337
0.000148337
0.000148337
0.000148337
0.000148337
0.000148337
0.000148337
0.000148337
0.000148337
0.000148337
0.000148337
0.000148337
0.000148337
0.000148337
0.000148337
0.000148337
0.000148337
0.000148337
0.000148337
0.000148337
0.000148337
0.000148337
0.000148337
0.000148337
0.000148337
0.000148337
0.000148337
0.000148337
0.000148337
0.000148337
0.000148337
0.000148337
0.000148337
0.000148337
0.000148337
0.000148337
0.000148337
0.000148337
0.000148337
0.000148337
0.000148337
0.000148337
0.000148337
0.000148337
0.000148337
0.000148337
0.000148337
0.000148337
0.000148337
0.000148337
0.000148337
0.000148337
0.000148337
0.000148337
0.000148337
0.000148337
0.000148337
0.000148337
0.000148337
0.000148337
0.000148337
0.000148337
0.000148337
0.000148337
0.000148337
0.000148337
0.000148512
0.000148551
0.000148594
0.000148634
0.000148664
0.000148681
0.000148683
0.000148673
0.000148654
0.00014863
0.000148429
0.000148468
0.000148508
0.000148534
0.000148539
0.000148524
0.000148496
0.000148461
0.000148425
0.000148391
0.000148384
0.00014841
0.000148433
0.00014844
0.00014843
0.000148407
0.00014838
0.000148356
0.000148337
0.000148324
0.000148365
0.000148377
0.000148384
0.000148382
0.000148369
0.000148354
0.000148341
0.000148332
0.000148329
0.000148329
0.000148368
0.000148371
0.000148366
0.000148357
0.000148347
0.000148339
0.000148335
0.000148334
0.000148334
0.000148336
0.000148401
0.000148406
0.000148384
0.000148361
0.000148346
0.000148338
0.000148334
0.000148333
0.000148333
0.000148336
0.000148489
0.000148527
0.000148468
0.000148406
0.000148364
0.000148341
0.00014833
0.000148326
0.000148328
0.000148335
0.000148684
0.000148843
0.000148716
0.000148557
0.00014844
0.000148367
0.000148324
0.000148297
0.00014827
0.000148223
0.000149086
0.000149573
0.00014934
0.000148996
0.000148716
0.000148512
0.000148352
0.00014817
0.000147832
0.000147267
0.000149571
0.000151054
0.000150922
0.000150521
0.000150164
0.00014987
0.000149543
0.000148867
0.000146977
0.000142244
0.000148437
0.000148396
0.000148366
0.00014835
0.000148342
0.000148331
0.0001483
0.000148195
0.000147865
0.000146856
0.000148375
0.000148362
0.00014835
0.00014834
0.00014833
0.00014831
0.000148263
0.00014816
0.000147963
0.000147682
0.000148349
0.000148346
0.000148341
0.000148336
0.00014833
0.000148315
0.000148285
0.000148228
0.000148141
0.000148055
0.000148341
0.000148339
0.000148338
0.000148336
0.000148333
0.000148325
0.000148311
0.000148286
0.000148254
0.000148226
0.000148338
0.000148337
0.000148337
0.000148336
0.000148335
0.000148332
0.000148327
0.000148318
0.000148307
0.000148298
0.000148337
0.000148337
0.000148337
0.000148337
0.000148336
0.000148335
0.000148333
0.000148331
0.000148327
0.000148325
0.000148337
0.000148337
0.000148337
0.000148337
0.000148337
0.000148336
0.000148336
0.000148335
0.000148334
0.000148334
0.000148337
0.000148337
0.000148337
0.000148337
0.000148337
0.000148337
0.000148336
0.000148336
0.000148336
0.000148336
0.000148337
0.000148337
0.000148337
0.000148337
0.000148337
0.000148337
0.000148337
0.000148337
0.000148337
0.000148337
0.000148337
0.000148337
0.000148337
0.000148337
0.000148337
0.000148337
0.000148337
0.000148337
0.000148337
0.000148337
0.000148337
0.000148337
0.000148337
0.000148337
0.000148337
0.000148337
0.000148337
0.000148337
0.000148337
0.000148337
0.000148337
0.000148337
0.000148337
0.000148337
0.000148337
0.000148337
0.000148337
0.000148337
0.000148337
0.000148337
0.000148337
0.000148337
0.000148337
0.000148337
0.000148337
0.000148337
0.000148337
0.000148337
0.000148337
0.000148337
0.000148337
0.000148337
0.000148337
0.000148337
0.000148337
0.000148337
0.000148337
0.000148337
0.000148337
0.000148337
0.000148337
0.000148337
0.000148337
0.000148337
0.000148337
0.000148337
0.000148337
0.000148337
0.000148337
0.000148337
0.000148337
0.000148337
0.000148337
0.000148337
0.000148337
0.000148337
0.000148337
0.000148337
0.000148337
0.000148337
0.000148337
0.000148337
0.000148337
0.000148337
0.000148337
0.000148337
0.000148337
0.000148337
0.000148337
0.000148337
0.000148337
0.000148337
0.000148337
0.000148337
0.000148337
0.000148337
0.000148337
0.000148337
0.000148337
0.000148337
0.000148337
0.000148337
0.000148337
0.000148337
0.000148337
0.000148337
0.000148337
0.000148337
0.000148337
0.000148337
0.000148337
0.000148337
0.000148337
0.000148337
0.000148337
0.000148337
0.000148337
0.000148337
0.000148337
0.000148337
)
;

boundaryField
{
    defaultFaces
    {
        type            empty;
    }
}


// ************************************************************************* //
