/*--------------------------------*- C++ -*----------------------------------*\
  =========                 |
  \\      /  F ield         | OpenFOAM: The Open Source CFD Toolbox
   \\    /   O peration     | Website:  https://openfoam.org
    \\  /    A nd           | Version:  11
     \\/     M anipulation  |
\*---------------------------------------------------------------------------*/
FoamFile
{
    format      ascii;
    class       volScalarField;
    location    "3.5";
    object      epsilon;
}
// * * * * * * * * * * * * * * * * * * * * * * * * * * * * * * * * * * * * * //

dimensions      [0 2 -3 0 0 0 0];

internalField   nonuniform List<scalar> 
700
(
0.000115859
0.000115859
0.000115859
0.000115859
0.000115859
0.000115859
0.000115859
0.000115859
0.000115859
0.000115859
0.000115859
0.000115859
0.000115859
0.000115859
0.000115859
0.000115859
0.000115859
0.000115859
0.000115859
0.000115859
0.000115859
0.000115859
0.000115859
0.000115859
0.000115859
0.000115859
0.000115859
0.000115859
0.000115859
0.000115859
0.000115859
0.000115859
0.000115859
0.000115859
0.000115859
0.000115859
0.000115859
0.000115859
0.000115859
0.000115859
0.000115859
0.000115859
0.000115859
0.000115859
0.000115859
0.000115859
0.000115859
0.000115859
0.000115859
0.000115859
0.000115859
0.000115859
0.000115859
0.000115859
0.000115859
0.000115859
0.000115859
0.000115859
0.000115859
0.000115859
0.000115859
0.000115859
0.000115859
0.000115859
0.000115859
0.000115859
0.000115859
0.000115859
0.000115859
0.000115859
0.00011586
0.00011586
0.00011586
0.000115859
0.000115859
0.000115859
0.000115859
0.000115859
0.000115859
0.000115859
0.000115898
0.000115877
0.000115865
0.000115861
0.00011586
0.00011586
0.00011586
0.000115859
0.000115854
0.000115843
0.000116962
0.000116289
0.000115977
0.000115884
0.000115867
0.000115869
0.000115874
0.000115859
0.000115758
0.000115416
0.000124721
0.000119433
0.00011683
0.000116066
0.0001159
0.000115886
0.000115876
0.000115821
0.000115711
0.000115739
0.000122247
0.000119792
0.000117353
0.000116325
0.00011598
0.000115898
0.000115892
0.000115874
0.000115794
0.000115715
0.000119689
0.000119255
0.000117528
0.000116564
0.000116116
0.000115943
0.000115896
0.000115894
0.00011588
0.000115836
0.000116661
0.000117904
0.000117177
0.000116593
0.000116219
0.000116015
0.00011592
0.000115887
0.00011588
0.000115871
0.000113233
0.000115727
0.000116136
0.000116186
0.000116109
0.000116014
0.000115941
0.000115898
0.000115877
0.000115869
0.00011
0.00011316
0.000114558
0.000115306
0.000115665
0.000115814
0.000115864
0.000115873
0.00011587
0.000115865
0.000107761
0.000111055
0.000113072
0.000114332
0.000115072
0.000115479
0.000115688
0.000115786
0.000115829
0.000115846
0.000107147
0.000110257
0.000112443
0.000113878
0.000114769
0.000115291
0.000115579
0.000115728
0.000115799
0.000115828
0.000108474
0.000111173
0.000113056
0.000114267
0.000115005
0.00011543
0.000115661
0.000115784
0.000115851
0.000115892
0.000112121
0.000113665
0.000114612
0.000115202
0.000115545
0.000115735
0.000115849
0.000115944
0.000116078
0.00011633
0.000115609
0.000115371
0.000115486
0.00011564
0.000115753
0.000115823
0.00011587
0.000115911
0.00011596
0.000116016
0.000115802
0.000115746
0.000115754
0.000115789
0.000115823
0.000115848
0.000115866
0.000115884
0.000115902
0.000115917
0.000115866
0.000115849
0.000115842
0.000115845
0.000115851
0.000115857
0.000115863
0.000115869
0.000115875
0.00011588
0.000115874
0.000115868
0.000115863
0.00011586
0.000115859
0.00011586
0.000115861
0.000115863
0.000115865
0.000115866
0.000115869
0.000115867
0.000115864
0.000115862
0.000115861
0.00011586
0.00011586
0.000115861
0.000115861
0.000115861
0.000115864
0.000115863
0.000115862
0.000115861
0.00011586
0.00011586
0.00011586
0.00011586
0.00011586
0.00011586
0.000115861
0.000115861
0.00011586
0.00011586
0.00011586
0.00011586
0.00011586
0.00011586
0.00011586
0.00011586
0.00011586
0.00011586
0.00011586
0.00011586
0.00011586
0.000115859
0.000115859
0.000115859
0.000115859
0.000115859
0.00011586
0.00011586
0.00011586
0.000115859
0.000115859
0.000115859
0.000115859
0.000115859
0.000115859
0.000115859
0.000115859
0.000115859
0.000115859
0.000115859
0.000115859
0.000115859
0.000115859
0.000115859
0.000115859
0.000115859
0.000115859
0.000115859
0.000115859
0.000115859
0.000115859
0.000115859
0.000115859
0.000115859
0.000115859
0.000115859
0.000115859
0.000115859
0.000115859
0.000115859
0.000115859
0.000115859
0.000115859
0.000115859
0.000115859
0.000115859
0.000115859
0.000115859
0.000115859
0.000115859
0.000115859
0.000115859
0.000115859
0.000115859
0.000115859
0.000115859
0.000115859
0.000115859
0.000115859
0.000115859
0.000115859
0.000115859
0.000115859
0.000115859
0.000115859
0.000115859
0.000115859
0.000115859
0.000115859
0.000115859
0.000115859
0.000115859
0.000115859
0.000115859
0.000115859
0.000115859
0.000115859
0.000115859
0.000115859
0.000115859
0.000115859
0.000115859
0.000115859
0.000115859
0.000115859
0.000115859
0.000115859
0.000115859
0.000115859
0.000115859
0.000115859
0.000115859
0.000115859
0.000115859
0.000115859
0.000115859
0.000115859
0.000115859
0.000115859
0.000115859
0.000115859
0.000115859
0.000115859
0.000115859
0.000115859
0.000115859
0.000115859
0.000115859
0.000115859
0.000115859
0.000115859
0.000115859
0.000115859
0.000115859
0.000115859
0.000115859
0.000115859
0.000115859
0.000115859
0.000115859
0.000115859
0.000115859
0.000115859
0.000115859
0.000115859
0.000115859
0.000116227
0.000116332
0.000116454
0.000116572
0.000116664
0.000116716
0.00011673
0.000116694
0.000116627
0.000116552
0.00011601
0.000116093
0.000116184
0.00011625
0.000116266
0.000116233
0.000116165
0.00011608
0.000115998
0.000115924
0.000115931
0.000115974
0.000116014
0.00011603
0.000116012
0.000115971
0.000115922
0.000115879
0.000115849
0.000115833
0.0001159
0.000115919
0.000115932
0.000115929
0.00011591
0.000115886
0.000115865
0.000115852
0.000115847
0.000115847
0.000115898
0.000115906
0.000115903
0.000115892
0.000115877
0.000115865
0.000115858
0.000115855
0.000115856
0.00011586
0.000115926
0.000115936
0.000115916
0.000115893
0.000115875
0.000115864
0.000115858
0.000115857
0.000115857
0.00011586
0.000116002
0.000116043
0.000115996
0.000115939
0.000115897
0.000115871
0.000115858
0.000115852
0.00011585
0.000115849
0.000116165
0.000116311
0.000116215
0.00011608
0.000115975
0.000115905
0.000115861
0.000115828
0.000115788
0.000115729
0.000116489
0.000116903
0.000116733
0.000116456
0.000116221
0.000116043
0.000115896
0.000115717
0.000115405
0.000114934
0.000116874
0.000118074
0.00011799
0.000117671
0.000117376
0.000117124
0.00011683
0.000116234
0.000114688
0.000110989
0.000116032
0.000115951
0.000115904
0.000115881
0.000115871
0.000115862
0.00011584
0.000115762
0.000115508
0.00011472
0.000115919
0.000115899
0.000115881
0.000115868
0.000115856
0.000115838
0.000115801
0.000115721
0.000115568
0.000115349
0.00011588
0.000115874
0.000115868
0.000115861
0.000115853
0.00011584
0.000115814
0.000115767
0.000115699
0.00011563
0.000115866
0.000115864
0.000115862
0.000115859
0.000115855
0.000115847
0.000115834
0.000115813
0.000115786
0.000115763
0.000115861
0.000115861
0.00011586
0.000115859
0.000115857
0.000115854
0.000115848
0.00011584
0.00011583
0.000115822
0.00011586
0.00011586
0.00011586
0.000115859
0.000115858
0.000115857
0.000115855
0.000115852
0.000115849
0.000115847
0.00011586
0.00011586
0.000115859
0.000115859
0.000115859
0.000115859
0.000115858
0.000115857
0.000115856
0.000115855
0.000115859
0.000115859
0.000115859
0.000115859
0.000115859
0.000115859
0.000115859
0.000115859
0.000115858
0.000115858
0.000115859
0.000115859
0.000115859
0.000115859
0.000115859
0.000115859
0.000115859
0.000115859
0.000115859
0.000115859
0.000115859
0.000115859
0.000115859
0.000115859
0.000115859
0.000115859
0.000115859
0.000115859
0.000115859
0.000115859
0.000115859
0.000115859
0.000115859
0.000115859
0.000115859
0.000115859
0.000115859
0.000115859
0.000115859
0.000115859
0.000115859
0.000115859
0.000115859
0.000115859
0.000115859
0.000115859
0.000115859
0.000115859
0.000115859
0.000115859
0.000115859
0.000115859
0.000115859
0.000115859
0.000115859
0.000115859
0.000115859
0.000115859
0.000115859
0.000115859
0.000115859
0.000115859
0.000115859
0.000115859
0.000115859
0.000115859
0.000115859
0.000115859
0.000115859
0.000115859
0.000115859
0.000115859
0.000115859
0.000115859
0.000115859
0.000115859
0.000115859
0.000115859
0.000115859
0.000115859
0.000115859
0.000115859
0.000115859
0.000115859
0.000115859
0.000115859
0.000115859
0.000115859
0.000115859
0.000115859
0.000115859
0.000115859
0.000115859
0.000115859
0.000115859
0.000115859
0.000115859
0.000115859
0.000115859
0.000115859
0.000115859
0.000115859
0.000115859
0.000115859
0.000115859
0.000115859
0.000115859
0.000115859
0.000115859
0.000115859
0.000115859
0.000115859
0.000115859
0.000115859
0.000115859
0.000115859
0.000115859
0.000115859
0.000115859
0.000115859
0.000115859
0.000115859
0.000115859
0.000115859
0.000115859
0.000115859
0.000115859
0.000115859
0.000115859
0.000115859
)
;

boundaryField
{
    defaultFaces
    {
        type            empty;
    }
}


// ************************************************************************* //
