/*--------------------------------*- C++ -*----------------------------------*\
  =========                 |
  \\      /  F ield         | OpenFOAM: The Open Source CFD Toolbox
   \\    /   O peration     | Website:  https://openfoam.org
    \\  /    A nd           | Version:  11
     \\/     M anipulation  |
\*---------------------------------------------------------------------------*/
FoamFile
{
    format      ascii;
    class       volScalarField;
    location    "3.5";
    object      k;
}
// * * * * * * * * * * * * * * * * * * * * * * * * * * * * * * * * * * * * * //

dimensions      [0 2 -2 0 0 0 0];

internalField   nonuniform List<scalar> 
700
(
0.000431939
0.000431939
0.000431939
0.000431939
0.000431939
0.000431939
0.000431939
0.000431939
0.000431939
0.000431939
0.000431939
0.000431939
0.000431939
0.000431939
0.000431939
0.000431939
0.000431939
0.000431939
0.000431939
0.000431939
0.000431939
0.000431939
0.000431939
0.000431939
0.000431939
0.000431939
0.000431939
0.000431939
0.000431939
0.000431939
0.000431939
0.000431939
0.000431939
0.000431939
0.000431939
0.000431939
0.000431939
0.000431939
0.000431939
0.000431939
0.000431939
0.000431939
0.000431939
0.000431939
0.000431939
0.000431939
0.000431939
0.000431939
0.000431939
0.000431939
0.000431939
0.000431939
0.000431939
0.000431939
0.000431939
0.000431939
0.000431939
0.000431939
0.000431939
0.000431939
0.000431939
0.000431939
0.000431939
0.000431939
0.000431939
0.000431939
0.000431939
0.000431939
0.000431939
0.000431939
0.000431944
0.000431942
0.00043194
0.000431939
0.000431939
0.000431939
0.000431939
0.000431939
0.000431938
0.000431937
0.000432118
0.000432026
0.000431967
0.000431946
0.000431941
0.000431941
0.000431942
0.000431937
0.000431914
0.000431866
0.000436616
0.000433878
0.000432511
0.000432069
0.000431975
0.000431978
0.000431984
0.000431893
0.000431453
0.000430104
0.000467258
0.000446772
0.000436256
0.000432946
0.000432137
0.000431989
0.000431855
0.000431539
0.00043102
0.000431039
0.000457775
0.000448205
0.000438462
0.00043412
0.000432559
0.000432128
0.000432021
0.000431856
0.000431446
0.000431039
0.000447398
0.000445783
0.000439063
0.000435123
0.000433186
0.000432388
0.000432134
0.000432063
0.000431937
0.000431679
0.000435121
0.000440006
0.000437371
0.000435114
0.000433586
0.000432704
0.000432272
0.000432103
0.000432038
0.000431955
0.000421425
0.000431042
0.000432851
0.000433211
0.000432988
0.000432633
0.000432336
0.000432145
0.000432045
0.00043199
0.000408674
0.000420717
0.000426274
0.000429376
0.000430953
0.00043166
0.000431923
0.000431991
0.000431989
0.000431972
0.000399931
0.000412383
0.000420209
0.000425261
0.000428346
0.00043012
0.000431075
0.000431553
0.000431775
0.000431869
0.000397596
0.000409292
0.0004177
0.000423381
0.000427038
0.000429273
0.000430564
0.000431268
0.000431628
0.000431797
0.000402855
0.000413001
0.000420238
0.000425042
0.000428082
0.000429907
0.00043095
0.000431525
0.000431843
0.000432024
0.000417045
0.000422883
0.000426584
0.000428986
0.000430445
0.000431288
0.000431782
0.000432127
0.000432489
0.000433081
0.000430483
0.00042966
0.000430192
0.000430879
0.000431395
0.000431724
0.000431932
0.000432087
0.000432231
0.000432367
0.000431467
0.000431293
0.000431373
0.000431558
0.000431732
0.000431858
0.000431946
0.000432015
0.000432076
0.00043212
0.000431864
0.000431815
0.000431808
0.00043184
0.000431882
0.000431918
0.000431948
0.000431974
0.000431996
0.000432011
0.000431967
0.000431947
0.000431932
0.000431928
0.000431932
0.000431938
0.000431945
0.000431953
0.000431961
0.000431965
0.00043197
0.000431962
0.000431953
0.000431946
0.000431942
0.000431942
0.000431943
0.000431944
0.000431946
0.000431948
0.000431957
0.000431953
0.000431949
0.000431945
0.000431942
0.000431941
0.000431941
0.000431941
0.000431941
0.000431942
0.000431946
0.000431945
0.000431943
0.000431942
0.000431941
0.00043194
0.00043194
0.00043194
0.00043194
0.00043194
0.000431942
0.000431941
0.000431941
0.00043194
0.00043194
0.000431939
0.000431939
0.000431939
0.000431939
0.000431939
0.00043194
0.00043194
0.00043194
0.000431939
0.000431939
0.000431939
0.000431939
0.000431939
0.000431939
0.000431939
0.000431939
0.000431939
0.000431939
0.000431939
0.000431939
0.000431939
0.000431939
0.000431939
0.000431939
0.000431939
0.000431939
0.000431939
0.000431939
0.000431939
0.000431939
0.000431939
0.000431939
0.000431939
0.000431939
0.000431939
0.000431939
0.000431939
0.000431939
0.000431939
0.000431939
0.000431939
0.000431939
0.000431939
0.000431939
0.000431939
0.000431939
0.000431939
0.000431939
0.000431939
0.000431939
0.000431939
0.000431939
0.000431939
0.000431939
0.000431939
0.000431939
0.000431939
0.000431939
0.000431939
0.000431939
0.000431939
0.000431939
0.000431939
0.000431939
0.000431939
0.000431939
0.000431939
0.000431939
0.000431939
0.000431939
0.000431939
0.000431939
0.000431939
0.000431939
0.000431939
0.000431939
0.000431939
0.000431939
0.000431939
0.000431939
0.000431939
0.000431939
0.000431939
0.000431939
0.000431939
0.000431939
0.000431939
0.000431939
0.000431939
0.000431939
0.000431939
0.000431939
0.000431939
0.000431939
0.000431939
0.000431939
0.000431939
0.000431939
0.000431939
0.000431939
0.000431939
0.000431939
0.000431939
0.000431939
0.000431939
0.000431939
0.000431939
0.000431939
0.000431939
0.000431939
0.000431939
0.000431939
0.000431939
0.000431939
0.000431939
0.000431939
0.000431939
0.000431939
0.000431939
0.000431939
0.000431939
0.000431939
0.000431939
0.000431939
0.000431939
0.000432853
0.000433095
0.000433377
0.000433653
0.000433864
0.000433985
0.000434017
0.000433937
0.000433785
0.000433608
0.000432353
0.000432543
0.000432749
0.000432898
0.000432935
0.000432861
0.000432703
0.000432503
0.000432303
0.00043212
0.000432171
0.000432276
0.000432371
0.000432405
0.000432359
0.000432256
0.000432131
0.000432014
0.00043192
0.000431853
0.000432097
0.000432151
0.00043218
0.000432164
0.000432107
0.000432034
0.000431969
0.000431923
0.000431897
0.000431886
0.000432112
0.00043214
0.00043212
0.000432072
0.000432015
0.000431968
0.000431938
0.000431926
0.000431927
0.000431942
0.000432245
0.000432296
0.000432214
0.000432107
0.000432021
0.000431967
0.00043194
0.000431929
0.000431931
0.000431944
0.000432571
0.000432767
0.000432582
0.000432331
0.000432137
0.000432015
0.000431947
0.000431913
0.000431893
0.00043187
0.000433236
0.00043388
0.000433527
0.00043297
0.000432512
0.000432197
0.000431985
0.000431813
0.000431596
0.000431282
0.000434502
0.000436223
0.00043563
0.00043454
0.000433581
0.000432834
0.000432183
0.000431365
0.000429976
0.000428043
0.000435976
0.000440691
0.000440458
0.000439228
0.00043805
0.000437011
0.000435753
0.000433221
0.000427024
0.000413083
0.000432401
0.000432211
0.000432091
0.000432025
0.000431993
0.000431969
0.000431894
0.000431614
0.00043068
0.000427752
0.000432122
0.00043207
0.000432015
0.000431969
0.000431925
0.000431855
0.000431708
0.000431402
0.000430824
0.000430002
0.000432011
0.000431993
0.000431969
0.000431943
0.000431909
0.00043185
0.000431742
0.000431555
0.000431287
0.000431024
0.000431965
0.000431958
0.000431949
0.000431936
0.000431916
0.000431882
0.000431822
0.000431732
0.00043162
0.00043153
0.000431947
0.000431945
0.000431941
0.000431936
0.000431926
0.00043191
0.000431883
0.000431845
0.000431802
0.000431771
0.000431941
0.000431941
0.000431939
0.000431937
0.000431933
0.000431927
0.000431916
0.000431902
0.000431887
0.000431876
0.00043194
0.000431939
0.000431939
0.000431938
0.000431937
0.000431934
0.000431931
0.000431926
0.000431921
0.000431918
0.000431939
0.000431939
0.000431939
0.000431939
0.000431938
0.000431938
0.000431936
0.000431935
0.000431933
0.000431932
0.000431939
0.000431939
0.000431939
0.000431939
0.000431939
0.000431939
0.000431938
0.000431938
0.000431937
0.000431937
0.000431939
0.000431939
0.000431939
0.000431939
0.000431939
0.000431939
0.000431939
0.000431939
0.000431939
0.000431938
0.000431939
0.000431939
0.000431939
0.000431939
0.000431939
0.000431939
0.000431939
0.000431939
0.000431939
0.000431939
0.000431939
0.000431939
0.000431939
0.000431939
0.000431939
0.000431939
0.000431939
0.000431939
0.000431939
0.000431939
0.000431939
0.000431939
0.000431939
0.000431939
0.000431939
0.000431939
0.000431939
0.000431939
0.000431939
0.000431939
0.000431939
0.000431939
0.000431939
0.000431939
0.000431939
0.000431939
0.000431939
0.000431939
0.000431939
0.000431939
0.000431939
0.000431939
0.000431939
0.000431939
0.000431939
0.000431939
0.000431939
0.000431939
0.000431939
0.000431939
0.000431939
0.000431939
0.000431939
0.000431939
0.000431939
0.000431939
0.000431939
0.000431939
0.000431939
0.000431939
0.000431939
0.000431939
0.000431939
0.000431939
0.000431939
0.000431939
0.000431939
0.000431939
0.000431939
0.000431939
0.000431939
0.000431939
0.000431939
0.000431939
0.000431939
0.000431939
0.000431939
0.000431939
0.000431939
0.000431939
0.000431939
0.000431939
0.000431939
0.000431939
0.000431939
0.000431939
0.000431939
0.000431939
0.000431939
0.000431939
0.000431939
0.000431939
0.000431939
0.000431939
0.000431939
0.000431939
0.000431939
0.000431939
0.000431939
0.000431939
)
;

boundaryField
{
    defaultFaces
    {
        type            empty;
    }
}


// ************************************************************************* //
