/*--------------------------------*- C++ -*----------------------------------*\
  =========                 |
  \\      /  F ield         | OpenFOAM: The Open Source CFD Toolbox
   \\    /   O peration     | Website:  https://openfoam.org
    \\  /    A nd           | Version:  11
     \\/     M anipulation  |
\*---------------------------------------------------------------------------*/
FoamFile
{
    format      ascii;
    class       volScalarField;
    location    "3.5";
    object      nut;
}
// * * * * * * * * * * * * * * * * * * * * * * * * * * * * * * * * * * * * * //

dimensions      [0 2 -1 0 0 0 0];

internalField   nonuniform List<scalar> 
700
(
0.000144929
0.000144929
0.000144929
0.000144929
0.000144929
0.000144929
0.000144929
0.000144929
0.000144929
0.000144929
0.000144929
0.000144929
0.000144929
0.000144929
0.000144929
0.000144929
0.000144929
0.000144929
0.000144929
0.000144929
0.000144929
0.000144929
0.000144929
0.000144929
0.000144929
0.000144929
0.000144929
0.000144929
0.000144929
0.000144929
0.000144929
0.000144929
0.000144929
0.000144929
0.000144929
0.000144929
0.000144929
0.000144929
0.000144929
0.000144929
0.000144929
0.000144929
0.000144929
0.000144929
0.000144929
0.000144929
0.000144929
0.000144929
0.000144929
0.000144929
0.000144929
0.000144929
0.000144929
0.000144929
0.000144929
0.000144929
0.000144929
0.000144929
0.000144929
0.000144929
0.000144929
0.000144929
0.000144929
0.000144929
0.000144929
0.000144929
0.000144929
0.000144929
0.000144929
0.000144929
0.000144931
0.00014493
0.00014493
0.000144929
0.000144929
0.000144929
0.000144929
0.000144929
0.000144929
0.000144928
0.000145001
0.000144965
0.000144942
0.000144932
0.00014493
0.00014493
0.00014493
0.000144928
0.000144918
0.0001449
0.000146689
0.000145694
0.000145166
0.000144986
0.000144944
0.000144943
0.000144941
0.000144899
0.000144729
0.000144253
0.000157549
0.000150414
0.000146613
0.000145347
0.000145011
0.00014493
0.000144853
0.000144709
0.000144498
0.000144476
0.000154279
0.000150928
0.000147438
0.00014581
0.000145194
0.000145007
0.000144943
0.000144855
0.00014468
0.000144506
0.000150514
0.000149973
0.000147624
0.000146185
0.000145445
0.000145126
0.000145014
0.00014497
0.000144902
0.000144784
0.000146062
0.000147786
0.000146926
0.000146142
0.000145584
0.000145248
0.000145077
0.000145004
0.00014497
0.000144925
0.00014116
0.000144494
0.000145195
0.000145374
0.000145322
0.000145202
0.000145093
0.000145019
0.000144978
0.000144952
0.000136649
0.000140777
0.000142756
0.000143902
0.000144511
0.000144799
0.000144913
0.000144947
0.00014495
0.000144944
0.000133584
0.000137818
0.000140547
0.000142359
0.000143503
0.000144184
0.000144564
0.000144762
0.000144857
0.000144899
0.000132784
0.000136742
0.000139649
0.000141666
0.000143006
0.000143852
0.000144358
0.000144643
0.000144796
0.000144873
0.000134653
0.000138085
0.000140585
0.000142293
0.00014341
0.000144103
0.000144513
0.000144746
0.000144875
0.000144945
0.000139611
0.000141598
0.000142897
0.00014377
0.00014432
0.000144648
0.000144837
0.00014495
0.000145025
0.000145107
0.000144265
0.000144011
0.000144224
0.000144492
0.000144698
0.00014483
0.000144911
0.000144963
0.000144999
0.00014502
0.000144685
0.000144637
0.000144681
0.000144762
0.000144836
0.00014489
0.000144925
0.00014495
0.000144968
0.000144978
0.000144871
0.000144858
0.000144863
0.000144881
0.000144901
0.000144918
0.00014493
0.00014494
0.000144948
0.000144952
0.000144929
0.000144924
0.000144921
0.000144921
0.000144924
0.000144928
0.000144931
0.000144934
0.000144937
0.000144938
0.000144939
0.000144936
0.000144933
0.000144931
0.00014493
0.00014493
0.000144931
0.000144931
0.000144932
0.000144932
0.000144936
0.000144934
0.000144933
0.000144931
0.00014493
0.00014493
0.00014493
0.00014493
0.00014493
0.00014493
0.000144932
0.000144932
0.000144931
0.00014493
0.00014493
0.00014493
0.00014493
0.00014493
0.00014493
0.00014493
0.00014493
0.00014493
0.00014493
0.00014493
0.00014493
0.000144929
0.000144929
0.000144929
0.000144929
0.000144929
0.00014493
0.00014493
0.000144929
0.000144929
0.000144929
0.000144929
0.000144929
0.000144929
0.000144929
0.000144929
0.000144929
0.000144929
0.000144929
0.000144929
0.000144929
0.000144929
0.000144929
0.000144929
0.000144929
0.000144929
0.000144929
0.000144929
0.000144929
0.000144929
0.000144929
0.000144929
0.000144929
0.000144929
0.000144929
0.000144929
0.000144929
0.000144929
0.000144929
0.000144929
0.000144929
0.000144929
0.000144929
0.000144929
0.000144929
0.000144929
0.000144929
0.000144929
0.000144929
0.000144929
0.000144929
0.000144929
0.000144929
0.000144929
0.000144929
0.000144929
0.000144929
0.000144929
0.000144929
0.000144929
0.000144929
0.000144929
0.000144929
0.000144929
0.000144929
0.000144929
0.000144929
0.000144929
0.000144929
0.000144929
0.000144929
0.000144929
0.000144929
0.000144929
0.000144929
0.000144929
0.000144929
0.000144929
0.000144929
0.000144929
0.000144929
0.000144929
0.000144929
0.000144929
0.000144929
0.000144929
0.000144929
0.000144929
0.000144929
0.000144929
0.000144929
0.000144929
0.000144929
0.000144929
0.000144929
0.000144929
0.000144929
0.000144929
0.000144929
0.000144929
0.000144929
0.000144929
0.000144929
0.000144929
0.000144929
0.000144929
0.000144929
0.000144929
0.000144929
0.000144929
0.000144929
0.000144929
0.000144929
0.000144929
0.000144929
0.000144929
0.000144929
0.000144929
0.000144929
0.000144929
0.000144929
0.000144929
0.000144929
0.000144929
0.000144929
0.000144929
0.000145083
0.000145114
0.000145152
0.000145188
0.000145216
0.000145231
0.000145235
0.000145227
0.000145208
0.000145183
0.000145019
0.000145043
0.000145067
0.000145085
0.00014509
0.00014508
0.00014506
0.000145032
0.000145001
0.00014497
0.000144995
0.000145013
0.000145026
0.000145029
0.00014502
0.000145002
0.000144979
0.000144954
0.000144929
0.000144905
0.000144984
0.000144997
0.000145
0.000144994
0.000144979
0.00014496
0.000144942
0.000144927
0.000144916
0.000144909
0.000144997
0.000145006
0.000144997
0.000144978
0.000144958
0.000144942
0.000144931
0.000144925
0.000144925
0.000144931
0.000145052
0.000145073
0.000145042
0.000145
0.000144965
0.000144943
0.000144931
0.000144926
0.000144927
0.000144932
0.000145175
0.000145256
0.00014519
0.000145093
0.000145016
0.000144965
0.000144937
0.000144921
0.00014491
0.000144896
0.000145417
0.000145667
0.00014555
0.000145344
0.000145169
0.000145045
0.000144958
0.000144884
0.000144789
0.000144652
0.000145862
0.000146499
0.000146314
0.000145929
0.000145579
0.0001453
0.000145048
0.000144722
0.000144181
0.000143472
0.000146369
0.000148032
0.000147981
0.000147555
0.000147133
0.000146752
0.000146275
0.000145321
0.000143096
0.000138369
0.000145023
0.000144998
0.000144975
0.000144959
0.000144951
0.000144946
0.000144924
0.000144833
0.000144524
0.000143544
0.000144978
0.000144967
0.000144953
0.000144939
0.000144924
0.000144899
0.000144847
0.000144742
0.000144545
0.000144268
0.000144952
0.000144947
0.000144939
0.00014493
0.000144917
0.000144895
0.000144854
0.000144787
0.000144693
0.000144602
0.000144938
0.000144936
0.000144932
0.000144927
0.000144919
0.000144906
0.000144883
0.000144848
0.000144807
0.000144775
0.000144932
0.000144932
0.00014493
0.000144928
0.000144924
0.000144917
0.000144906
0.000144891
0.000144874
0.000144863
0.00014493
0.00014493
0.000144929
0.000144928
0.000144927
0.000144924
0.000144919
0.000144913
0.000144907
0.000144903
0.00014493
0.000144929
0.000144929
0.000144929
0.000144928
0.000144927
0.000144926
0.000144923
0.000144921
0.00014492
0.000144929
0.000144929
0.000144929
0.000144929
0.000144929
0.000144929
0.000144928
0.000144927
0.000144927
0.000144926
0.000144929
0.000144929
0.000144929
0.000144929
0.000144929
0.000144929
0.000144929
0.000144929
0.000144929
0.000144928
0.000144929
0.000144929
0.000144929
0.000144929
0.000144929
0.000144929
0.000144929
0.000144929
0.000144929
0.000144929
0.000144929
0.000144929
0.000144929
0.000144929
0.000144929
0.000144929
0.000144929
0.000144929
0.000144929
0.000144929
0.000144929
0.000144929
0.000144929
0.000144929
0.000144929
0.000144929
0.000144929
0.000144929
0.000144929
0.000144929
0.000144929
0.000144929
0.000144929
0.000144929
0.000144929
0.000144929
0.000144929
0.000144929
0.000144929
0.000144929
0.000144929
0.000144929
0.000144929
0.000144929
0.000144929
0.000144929
0.000144929
0.000144929
0.000144929
0.000144929
0.000144929
0.000144929
0.000144929
0.000144929
0.000144929
0.000144929
0.000144929
0.000144929
0.000144929
0.000144929
0.000144929
0.000144929
0.000144929
0.000144929
0.000144929
0.000144929
0.000144929
0.000144929
0.000144929
0.000144929
0.000144929
0.000144929
0.000144929
0.000144929
0.000144929
0.000144929
0.000144929
0.000144929
0.000144929
0.000144929
0.000144929
0.000144929
0.000144929
0.000144929
0.000144929
0.000144929
0.000144929
0.000144929
0.000144929
0.000144929
0.000144929
0.000144929
0.000144929
0.000144929
0.000144929
0.000144929
0.000144929
0.000144929
0.000144929
0.000144929
0.000144929
0.000144929
0.000144929
0.000144929
0.000144929
0.000144929
0.000144929
0.000144929
0.000144929
0.000144929
)
;

boundaryField
{
    defaultFaces
    {
        type            empty;
    }
}


// ************************************************************************* //
