/*--------------------------------*- C++ -*----------------------------------*\
  =========                 |
  \\      /  F ield         | OpenFOAM: The Open Source CFD Toolbox
   \\    /   O peration     | Website:  https://openfoam.org
    \\  /    A nd           | Version:  11
     \\/     M anipulation  |
\*---------------------------------------------------------------------------*/
FoamFile
{
    format      ascii;
    class       volScalarField;
    location    "2";
    object      gradTz;
}
// * * * * * * * * * * * * * * * * * * * * * * * * * * * * * * * * * * * * * //

dimensions      [0 -1 0 1 0 0 0];

internalField   nonuniform List<scalar> 
5712
(
7324.32
24061.3
5814.73
24671.8
4365.92
25515
6889.81
39326.9
8465.58
54071.6
8403.2
39386.2
8106.49
32690.6
8425.51
29210.2
5099.05
3155.5
13630.8
8090.25
4995.42
2693.9
14917
7406.07
5574.81
4041.59
17874.9
12578.7
4216.54
3035.92
17581.1
12774.3
9888.73
4187.01
8541.93
3807.62
3930.97
9225.94
34162.6
9258.65
12235.8
4137.67
44003
11946.6
11455
3957.84
24401.5
7572.8
12525.3
4369.65
21220.7
6747.46
6018.41
2984
8848.63
3447.97
6513.23
3520.84
8628.27
3311.29
8260.31
4708.42
7437.04
3231.99
10987.5
3949.34
3779.66
1319.79
12444.1
8634.51
7694.29
5629.42
13886.1
11428.8
7586.77
6565.97
7299.16
4939.06
10298.6
6902.06
5067.33
3727.27
2570.3
2110.4
4888.4
4223.12
2524.29
2436.63
4867.26
3196.11
2490.56
1600.3
6527.79
3549.78
4901.08
5908.16
8943
6364.31
7105.28
10114.2
4315.74
2045.17
2889.22
3381.81
2140.55
889.726
1247.3
1253.56
7944.33
14244.3
5386.4
15899.9
9310.4
13945.5
6623.61
16645.5
10573.7
12625.6
8527.82
16244
12435.2
14795.4
9381.64
9053.18
9897.85
14786.1
13708.3
13498.4
13862.4
19987.5
12021
9286.68
8060.58
9034.1
14139.7
16491.6
14722.8
19122.4
18381.7
15101.6
13992.6
18885.6
17998.3
13070.9
12746.3
17713.6
17344.3
10798.6
8478.28
10094.2
8798.9
11038.1
9879.07
11872.8
11403.1
16301.6
16693.2
10091.3
8751.61
9660.53
9302.46
9979.67
10596.5
11235.8
12633.3
14647.7
16959.7
8348.16
6557.32
5727.87
7282.25
11255.4
13694.9
7800.32
12327.3
4864.41
6387.35
7251.41
5982.86
1395.17
4831.87
720.077
1735.36
3984.54
8283
1468.71
2869.5
676.823
4104.5
374.864
1438.35
4785.22
4859.65
5439.15
3389.72
7577.48
6069.91
8910.65
6159.6
1131.52
2662.48
2700.78
1543.59
1503.55
1947.26
2123.61
1605.46
11725.7
7123.53
2242.54
13270.7
7617.45
2493.95
11248.2
7049.64
2379.75
13064.4
7627.52
2492.43
10349.1
6474.58
2128.3
12749.1
7665.57
2560.85
5561.06
3025.41
823.248
7138.07
4701.84
1631.96
8525.13
5876.86
2025.8
9862.28
6385.57
2120.14
12627.3
7875.79
2753.02
6592.77
3721.48
1185.75
6733.77
4847.25
1828.74
8002.72
5908.76
2170.42
9992.41
7011.77
2508.07
12774.2
7975.25
2830.36
299.653
2017.56
2854.99
4118.81
2196.11
2519.09
5514.02
5228.16
603.246
1031.86
644.054
1074.73
488.062
1415.71
870.775
1856.56
3227.69
1577.9
4080.95
2359.59
2170.76
3790.68
3412.07
925.704
6114.08
1485.19
-1936.08
704.774
1778.46
1321.75
1230.03
1129.34
9809.59
4485
2679.55
1660.24
9963.3
4661.84
3375.26
2102.74
9835.32
5016.65
4895.62
3434.1
3510.66
2527.32
1724.34
1652.59
12651.3
11243.6
5955.76
6179.84
13618.5
12779.7
6718.97
6773.58
5293.38
5447.95
10871.5
9082.85
3552.1
3718.97
1981.91
2257.45
4138.34
4113.07
2268.56
2432.75
3096.41
3342.15
1732.96
2139.76
4720.47
3306.83
4711.18
3348.78
7351.89
4355.72
7013.38
4631.26
2844.02
2396.95
2983.42
2166.11
1587.59
1502.93
1899.03
1272.87
11614.9
8074.22
5857.9
5945.32
11567.2
8276.87
5889.61
5917.31
12012.4
8620.71
5973.98
5755.78
13878.5
14980.8
12667.9
8490.64
4842.07
14194.2
13140
12227.5
10124.6
6567.28
13307.9
12031.4
9630.92
7436.48
4669.3
6845.24
6080.57
6393.66
7301.63
7070.85
5986.87
6464.36
7216.45
7393.24
5971.47
6540.41
7134.59
10709.2
7560.12
9992.69
6957.52
7881.85
6376.59
7395.54
6340.26
6076.9
7083.01
8897.91
7722.77
7874.2
6879.41
6737.39
6119.85
5967.97
5940.63
4785.4
6736.66
7039.76
4760.42
4679.95
2795.1
9195.99
7087.56
6394.69
5144.34
3828.42
2299.37
5554.65
4107.99
4731.34
2235.27
1730.39
995.453
5007.94
3622.48
1747.24
1448.05
4099.12
1829.79
1612.44
848.394
3197.24
2947.51
2824.54
4146.16
4450.6
4216.17
3600.04
5307.43
3240.79
2103.83
2049.17
2816.38
980.1
474.383
216.026
526.173
4205.95
1754.62
517.973
4841.05
1254.21
333.996
4265.59
1899
583.19
4837.96
1306.66
365.195
3998.77
1888.61
488.807
4765.57
1333.2
312.846
4668.74
2367.63
530.193
4218.11
2032.33
478.762
4139.45
1980.16
535.101
4109.67
1921.9
407.193
4760.68
1313.25
196.923
5909.69
2971.46
795.044
5323.41
2641.28
721.531
4846.36
2389.9
694.256
4599.75
1964.18
482.577
5162.44
1231.82
301.229
1747.57
626.243
127.055
-182.81
728.495
275.404
75.9227
-35.3972
1852.21
686.765
179.727
-110.209
926.192
382.505
184.71
85.6865
1989.47
764.042
271.223
3.36359
1585.88
734.979
281.934
61.913
1209
675.893
232.016
-16.7728
1131.04
734.973
420.875
245.85
1648.45
728.165
219.078
-169.818
1408.71
614.369
267.448
-167.333
1946.49
752.806
244.107
-116.652
1759.05
683.911
272.863
-273.398
1322.95
676.553
265.517
-56.1178
1082.07
542.114
287.342
1.97676
977.24
594.759
348.521
210.998
746.158
457.185
302.323
175.517
2219.44
754.135
127.188
-364.552
2189.35
693.415
184.775
-495.514
2218.3
765.676
147.058
-347.252
2122.55
675.115
192.473
-480.654
2177.51
769.224
223.358
-242.702
1983.83
639.798
236.115
-390.32
1911.73
712.256
306.744
-21.1984
2177.11
717.306
331.698
-454.853
1706.67
637.161
306.41
-105.415
1728.32
488.178
165.183
-332.801
686.513
177.35
44.6331
-68.0513
1789.19
522.394
183.604
-316.709
716.979
192.254
57.0448
-54.4912
1827.39
561.304
226.078
-276.273
732.89
209.458
73.1868
-38.0543
1650.78
530.275
259.939
-215.6
713.817
216.922
100.403
-8.65403
1514.61
528.446
280.999
-122.159
641.704
229.512
136.636
31.0979
1055.84
425.488
206.642
-37.9542
605.771
299.034
179.665
93.842
1219.35
432.896
213.985
-89.6872
611.397
260.956
158.894
63.1727
851.326
410.667
224.432
34.2219
542.824
313.293
195.648
123.841
601.807
371.247
249.886
152.698
452.207
310.166
214.238
159.772
-16.5349
6.65534
6.73461
4.62102
3.45182
-2.47711
4.54311
3.8069
2.55486
1.90863
8.29394
19.4715
13.8089
8.87764
6.51993
24.3579
19.0911
11.977
7.4778
5.44984
35.3363
35.1154
22.8248
14.4551
10.5943
99.0176
64.8521
38.9405
24.1076
17.5358
118.566
76.4152
45.8774
28.4766
20.7825
172.743
101.161
58.9408
36.2415
26.4057
61.9842
51.3269
32.2591
20.2551
14.756
66.6551
48.4787
29.7774
18.6501
13.595
42.8288
41.2231
26.388
16.7156
12.2397
79.603
50.516
29.9179
18.5868
13.5023
80.922
61.2243
38.0154
23.8271
17.407
89.6432
57.9992
34.8373
21.6822
15.8119
137.25
81.485
47.6035
29.2979
21.339
114.76
67.2867
39.2466
24.1553
17.5654
-30.4761
3.30769
4.98512
3.54876
2.67326
-16.6389
1.0271
1.95594
1.42005
1.08444
-14.1588
11.3674
9.36208
6.1753
4.5833
-10.8112
3.88195
3.47857
2.31768
1.73855
6.4066
20.7501
14.3597
9.21812
6.82573
11.29
13.3731
8.41023
5.21025
3.83533
52.1722
40.8525
25.0967
15.7761
11.6075
34.9512
25.8466
15.5027
9.65851
7.10561
96.9374
53.7084
30.749
18.872
13.7037
1706.33
3897.37
1729.4
3861.18
1896.61
3834.27
2257.49
3987.45
2351.18
4107.25
957.907
1462.96
1558.29
2460.66
516.518
722.581
188.585
245.182
8866.61
2118.41
485.693
108.536
26.98
2418.1
651.294
173.274
39.4212
8.5751
8761.36
2076.41
475.627
105.4
26.395
2461.48
726.091
179.014
41.6386
10.3475
8364.21
1968.68
449.291
99.4418
24.9334
2389.24
701.985
172.603
39.9463
9.96293
7658.35
1786.75
406.567
89.9142
22.5525
2320.55
667.537
162.015
37.1653
9.22006
6411.02
1488.18
338.828
75.0391
18.8462
2191.13
613.341
147.25
33.5687
8.30363
3031.54
735.885
170.432
38.0239
9.5661
1069.23
304.066
72.4353
16.2301
4.00578
4518.72
1081.48
248.532
55.1755
13.8583
1573.02
441.554
106.06
24.1647
6.01757
1779.11
435.297
101.287
22.7088
5.72433
599.38
177.254
41.9889
9.40602
2.34374
615.172
149.641
34.9071
7.85474
1.98167
240.887
64.7542
14.2364
3.98661
0.779338
80.4675
478.701
4599.82
-868.316
757.553
811.852
2368.8
3033.65
1914.28
3587.72
3018.61
4654.14
3641.72
4518.9
1891.28
2546.5
2014.65
2389.89
1047.43
1089.09
2314.37
1681.99
552.094
-401.055
-695.139
-832.222
-213.832
13105.1
3282.4
4357.26
2871.22
-80.3362
50.2322
3042.69
-1288.23
-683.443
-971.416
-507.381
7189.73
3827.13
1398.14
1123.15
3699.37
2087.07
688.19
1422.53
-1383.86
-768.417
763.514
621.086
8752.83
4318.62
5398.34
2891.08
4098.91
4559.88
1592.53
-798.399
999.334
1630.86
1325.89
1133.91
1009.64
761.589
1327.7
1064.87
829.004
580.841
248.448
484.235
401.335
303.734
192.582
66.8797
-358.165
-298.798
-222.909
-136.924
-46.1022
-620.987
-518.467
-387.417
-238.423
-80.3425
-744.483
-622.714
-466.262
-287.459
-96.9654
-185.867
-148.189
-103.412
-58.7649
-18.5818
9427.18
8080.92
6807.17
6134.26
5587.19
2867.31
2472.3
2258.75
1848.53
960.264
3319
2620.87
2169.85
1668.5
855.582
2189.09
1734.98
1476.5
1118.35
463.285
46.219
66.4487
157.761
160.395
77.7287
127.539
187.481
209.1
172.85
71.4417
2566.21
2123.47
1653.92
1138.07
462.436
-773.52
-372.989
-144.382
-24.4846
6.67188
-542.385
-384.248
-231.066
-109.282
-28.0812
-680.013
-418.308
-213.538
-82.3745
-16.7951
-460.356
-383.182
-280.342
-167.111
-54.4827
5289.2
4731.42
4041.76
3673.41
3360.14
2933.93
2299.46
1880.88
1405.42
674.236
1275.51
1131.96
940.072
662.441
258.468
983.717
833.96
662.225
448.788
168.973
3075.58
2468.26
1866.59
1230.36
470.161
1841.07
1552.8
1210.67
797.64
287.5
598.381
498.793
385.95
253.444
91.8751
1251.21
1042.65
794.967
508.428
178.264
-1199.82
-967.626
-698.489
-417.846
-138.276
-676.336
-552.067
-400.313
-238.557
-78.4099
678.632
579.6
459.753
308.228
113.113
554.67
475.818
378.201
252.815
91.8452
5631.77
4079.84
3468.05
3139.18
2697
3287.84
2544.04
1950.12
1376.8
613.577
3956.66
3216.2
2572.74
1971.08
948.372
2303.41
1866.86
1442.51
1002.39
431.876
3479.35
2833.96
2152.21
1404.55
517.152
3445.62
2540.1
2030.52
1496.99
624.301
1387.84
1148.86
874.732
562.026
198.823
-708.86
-585.448
-430.57
-260.263
-86.4569
877.053
742.969
588.416
396.393
146.513
-28096.8
-45976.7
-23300.8
-37210.1
-24944.8
-52216.4
-29853.2
-66314.3
-17801.3
-12179.2
-20014
-12472.1
-16404
-10538.4
-20302.1
-10689.9
-23263.6
-17544.3
-33858.1
-24410
-19985.4
-15943.9
-28291.1
-21270.1
-16007.4
-16369.5
-13145.8
-12648.3
-15494.7
-14576.7
-38961.3
-10747.3
-14846.7
-5544.88
-47619.7
-13204.8
-13269.7
-4940.21
-29001.7
-9131.72
-15203.7
-5822.81
-25801.3
-8017.26
-12035.9
-4844.75
-15316.5
-5551.78
-11426.6
-5027.65
-13311
-4820.4
-11840.6
-5750.96
-10634.1
-4224.1
-13616.9
-4810.11
-4774.42
-1676.84
-10178.7
-6782.34
-8786.41
-5367.61
-8961.81
-7213.59
-7699.12
-5493.11
-8945.95
-5107.04
-10478.8
-6560.7
-6019.35
-3598.87
-3236.03
-1991.51
-5190.5
-3580.99
-2698.6
-1923.11
-6121.12
-3337.32
-3374.86
-1696.03
-7893.41
-4010.77
-5120.11
-5946.09
-10023.9
-6740.38
-7216.46
-10043.7
-5348.06
-2400.02
-3063.24
-3430.65
-2881.01
-1159.91
-1377.08
-1298.11
-11849.6
-14435.7
-6684.74
-16342.1
-12321.2
-13775.3
-7678.54
-16708.1
-12451.8
-12540.4
-9150.72
-15897.3
-8497.81
-6847.55
-9321.69
-10347.6
-10326.9
-9357.48
-10841.1
-12600.2
-13572.4
-19274.9
-6447.15
-6675.49
-7278.23
-8806.36
-13738
-13717.7
-9572.25
-17414.9
-13403.9
-12716.5
-9421.25
-17158.7
-13351.3
-11255.4
-8805.63
-16015.9
-13220.4
-7666.45
-6102.26
-7949.4
-6358.32
-8894.55
-7195.96
-9738.13
-8266.22
-14591.8
-13292.9
-7197.93
-6214.36
-7271.74
-6328.35
-8020.58
-7513.42
-9643.49
-9576.28
-13457
-13869
-6625.56
-5291.67
-4874
-6371.66
-8253.26
-11374.4
-6241.64
-10510
-4485.51
-5904.72
-6410.1
-5245.17
-877.024
-4198.67
-263.375
-1242.44
-3009.96
-7217.79
-678.055
-2024.51
-449.837
-3763.73
-157.277
-1164.06
-4617.82
-4593.89
-5319.03
-3209.76
-7152.91
-5567.9
-8610.84
-5673.69
-1035.48
-2484.12
-2618.84
-1428.92
-1406.03
-1798.11
-2046.99
-1504.63
-5810.12
-1998.46
-7865.51
-2683.15
-5939.74
-2086.21
-8052.35
-2890.15
-5894.45
-2054.45
-8526.26
-3287.11
-3593.18
-1012.04
-4494.72
-1723.75
-5090.06
-1974.87
-6135.11
-2322.44
-9004.11
-3585.24
-4567.82
-1389.2
-4151.62
-2050.12
-5022.54
-2389.02
-6771.28
-2959.38
-9344.07
-3533.21
-6177.08
-5786.39
-4675.15
-4585.46
-10375
-7930.82
-8442.91
-6992.55
-4159.33
-3589.17
-1705.12
-1219.04
-3923.63
-3774.8
-1575.18
-1637
-2992.09
-4635.71
-3549.32
-5008.95
-3764.65
-2500.23
-3259.93
-536.588
-6851.99
-1810.65
2573.74
389.717
-948.211
-315.021
205.173
635.444
-2417.09
-1683.47
-902.736
-530.488
-2577.74
-1786.34
-1364.86
-622.594
-2886.08
-2150.96
-1825.55
-875.677
-1216.35
-111.619
608.186
1042.02
-5106.03
-5491.61
-3949.75
-3695.01
-6911.88
-6924.09
-5741.04
-4821.58
-2571.88
-2870.45
-3842.23
-4417.81
-2394.63
-2079.32
-1007.97
-924.072
-3690.01
-2897.89
-1867.61
-1469.66
-1342.72
-1501.27
-236.614
-585.275
-1684.39
-1173.38
-2429.46
-1739.22
-2629.14
-2110.62
-3746.48
-2851.12
-611.031
-361.787
-1189.08
-678.088
386.696
516.416
-308.138
156.767
-3503.03
-4383.1
-2944.22
-4341.58
-3468.28
-4385.87
-3011.93
-4332.42
-3669.13
-4075.15
-3182.98
-4116.29
-2875.57
-4803.3
-2435.55
-2103.41
-2250.69
-7192.54
-5066.96
-4603.53
-4715.92
-4762.22
-5776.99
-4821.69
-4043.93
-3725.36
-2880.33
-5176.93
-5168.19
-6686.08
-10333.2
-4918.74
-4659.22
-6419.15
-9853.76
-4547.17
-4331.94
-5926.69
-9092.61
-6988.89
-5354.72
-6251.97
-4734.76
-5401.93
-4269.75
-5443.82
-4965.11
-5502.47
-8400.08
-5660.48
-5327.4
-4752.47
-4744.6
-4214.82
-4425.78
-4275.63
-5062
-3833.15
-7323.09
-3890.7
-2764.26
-2675.68
-980.659
-5655.02
-4944.38
-4388.16
-3242.7
-2038.36
-714.031
-3107.71
-2454.53
-3226.41
-987.675
-461.272
100.854
-3646.84
-2391.54
-659.585
-387.712
-2637.26
-699.733
-297.712
174.408
-1818.42
-1852.45
-1954.31
-3681.97
-2820.83
-3158.67
-2789.7
-5130.06
-1974.54
-1220.91
-1079.76
-2245.52
251.392
394.088
813.346
154.415
-3692.41
-1075.14
-6924.71
-678.31
-3458.72
-1162.66
-6737.36
-704.338
-2667.98
-706.104
-6123.38
-538.268
-2945.47
-664.469
-2676.3
-623.553
-2855.08
-866.015
-2928.91
-543.021
-5758.05
-714.105
-4080.91
-805.193
-3701.45
-594.384
-3691.47
-717.842
-4020.52
-585.308
-6049.24
-724.075
-733.654
-154.616
152.73
390.17
-247.611
-40.1045
58.0603
121.525
-723.83
-122.949
165.544
363.826
-170.518
27.9674
54.7611
64.5549
-741.596
-86.3125
159.955
312.776
-16.6012
218.492
344.559
375.128
515.969
442.938
513.317
520.382
957.839
669.699
508.527
363.876
-325.915
107.341
357.35
597.609
-260.694
159.166
275.961
592.764
-798.501
-71.7133
220.388
484.181
-607.621
49.0116
241.848
726.616
122.314
286.83
383.42
504.312
55.7504
256.114
280.571
424.144
557.854
456.315
373.728
289.717
391.309
356.553
285.636
265.397
-1160.63
-261.754
180.414
638.146
-1441.52
-306.738
45.774
792.087
-1113.69
-227.347
196.941
650.29
-1386.7
-283.76
46.9659
783.85
-1036.34
-174.852
149.53
556.265
-1260.32
-240.093
13.3824
708.317
-687.858
-38.4354
131.405
390.696
-1304.47
-205.659
6.29233
877.604
-638.952
15.5215
157.09
555.696
-1335.26
-233.774
-12.2725
553.454
-580.473
-89.2546
19.7749
139.222
-1247.81
-200.999
4.78476
555.775
-552.508
-78.4764
22.391
136.6
-1070.47
-136.896
10.2607
538.331
-470.729
-51.559
34.4384
142.469
-878.808
-83.5744
-7.60774
480.461
-385.255
-24.1871
32.5986
135.416
-642.61
2.64014
38.386
410.308
-198.027
38.391
44.1476
131.041
-286.653
120.913
192.607
388.171
95.6045
189.806
163.912
189.728
-529.476
29.2507
112.33
396.009
-17.1223
121.044
103.452
160.495
8.80041
219.877
238.134
351.01
208.869
244.896
206.444
202.099
304.229
304.071
245.214
250.359
325.224
285.859
217.113
185.595
86.006
24.1431
9.44383
4.99436
3.48957
36.1935
11.4916
4.80661
2.5962
1.81562
99.6599
34.6558
16.039
9.13533
6.53898
56.74
24.8519
12.8514
7.6116
5.51058
122.132
48.2064
24.0557
14.0199
10.0899
143.7
71.7394
39.3336
23.6837
17.2293
159.661
82.9056
45.9653
27.698
20.0986
177.735
101.671
58.497
35.7272
26.003
146.262
63.4338
33.1986
19.6731
14.287
123.765
55.8361
29.6507
17.5949
12.774
131.958
52.1034
26.4037
15.4129
11.1153
107.996
51.6222
28.1949
16.831
12.2525
156.959
72.8262
38.9328
23.1959
16.8168
126.049
63.1014
34.6643
20.81
15.1379
148.182
82.7461
47.3197
28.8452
20.9839
123.395
68.4382
39.0188
23.75
17.2836
93.9691
21.5245
7.63645
3.8911
2.68685
43.722
8.68262
2.89589
1.4306
0.967744
100.613
27.6097
11.5635
6.36542
4.49135
46.1384
10.9046
4.34814
2.35838
1.64211
103.061
33.0922
15.4187
8.78645
6.23442
51.3535
17.9608
9.04413
5.36351
3.837
113.305
45.7866
23.7433
13.9144
9.96309
66.9157
27.3968
14.5256
8.5942
6.15233
94.4301
50.6897
28.6661
17.3358
12.6195
-1837.25
-3473.98
-1889.64
-3480.1
-2058.06
-3505.83
-2260.26
-3598.71
-2187.71
-3615.88
-867.465
-1341.94
-1433.59
-2226.07
-434.237
-637.428
-108.649
-171.4
-8901.81
-2110.29
-481.188
-107.079
-26.5222
-2397.13
-647.428
-171.794
-38.9304
-8.43203
-8746.43
-2060.59
-470.05
-103.824
-25.925
-2444.22
-722.004
-177.356
-41.0959
-10.1768
-8267.76
-1941.42
-442.255
-97.7168
-24.4573
-2365.67
-695.45
-170.499
-39.3432
-9.78514
-7496.87
-1751.38
-398.697
-88.1565
-22.0981
-2272.35
-656.222
-159.212
-36.4775
-9.03533
-6249.78
-1454.94
-331.75
-73.5168
-18.4667
-2115.96
-597.936
-143.93
-32.8332
-8.11961
-2978.79
-722.822
-167.388
-37.3455
-9.39582
-1020.92
-292.316
-69.8263
-15.6693
-3.87023
-4420.32
-1058.93
-243.545
-54.0961
-13.592
-1506.69
-427.393
-103.056
-23.5217
-5.86181
-1750.18
-427.999
-99.5162
-22.3013
-5.61931
-563.671
-167.778
-39.7432
-8.90579
-2.21919
-596.095
-144.914
-33.7364
-7.57838
-1.90883
-211.04
-56.6
-12.2159
-3.51923
-0.660804
99.7376
-1150.02
-5548.39
811.145
-6529.54
-2872.31
-6323.84
-2918.49
-11554.2
-6164.4
-12949.7
-6861.55
-126.389
-486.98
-763.014
-898.979
-803.545
-306.249
-207.049
-759.932
-1153.67
-1277.99
-1032.14
-342.129
-106.685
-113.239
-388.536
-390.391
-554.367
-548.812
-532.415
-507.081
-472.054
-459.153
-356.742
-331.482
853.286
2172.93
3523.94
2503.62
2295.61
1097.1
788.812
2241.29
3635
4220.73
3524.42
1598.69
-113.922
-96.24
-72.8783
-45.3877
-15.4064
-439.56
-372.004
-282.245
-176.057
-59.8132
-688.66
-582.754
-442.105
-275.764
-93.6892
-811.095
-686.085
-520.29
-324.433
-110.206
-724.934
-613.08
-464.747
-289.663
-98.3619
-278.48
-237.149
-180.381
-112.353
-38.0657
-186.502
-157.433
-119.132
-74.1567
-25.166
-685.462
-579.644
-439.455
-273.979
-93.0584
-1040.27
-879.367
-666.506
-415.48
-141.119
-1151.47
-972.549
-736.62
-459
-155.878
-929.163
-784.077
-593.423
-369.614
-125.507
-309.252
-261.934
-198.667
-123.766
-41.9986
-96.2318
-81.374
-61.6812
-38.4428
-13.0535
-102.21
-86.4935
-65.6127
-40.9191
-13.8995
-350.845
-297.076
-225.508
-140.716
-47.8132
-352.585
-298.607
-226.713
-141.489
-48.0801
-500.539
-423.776
-321.647
-200.688
-68.1879
-495.488
-419.453
-318.33
-198.603
-67.4776
-480.716
-406.982
-308.862
-192.676
-65.4548
-457.55
-387.073
-293.548
-183.037
-62.1678
-426.192
-360.692
-273.514
-170.45
-57.8587
-413.761
-349.453
-264.546
-164.705
-55.8925
-322.612
-273.167
-206.812
-128.465
-43.4786
-298.518
-251.777
-190.184
-118.111
-40.0086
756.539
629.905
473.509
295.281
100.756
1918.3
1592.73
1197.13
748.692
256.706
3074.14
2534.57
1906.65
1203.97
419.628
2168.93
1784.13
1346.17
854.753
299.168
2020.75
1667.34
1252.59
782.388
254.932
996.251
839.655
640.137
401.334
127.89
700.483
583.773
438.656
273.101
93.0217
1985.27
1651.74
1241.07
773.964
264.301
3199.29
2650.05
1989.96
1245.43
427.818
3689.44
3042.34
2284.02
1435.31
496.281
3080.24
2539.54
1907.99
1200.14
413.573
1412.29
1176.78
892.148
564.101
194.24
262.421
622.656
897.384
1030.42
929.226
438.573
397.588
947.179
1330.82
1432.29
1149.42
421.491
213.039
202.703
492.545
478.719
651.615
631.604
615.799
573.14
550.91
474.017
492.721
377.375
-700.095
-1941.42
-3123.85
-1969.47
-1648.25
-391.435
-722.493
-2135.34
-3400.33
-3798.37
-2916.92
-874.594
237.309
201.304
153.104
95.6907
32.5447
562.726
476.958
362.449
226.383
76.9694
810.752
686.931
521.829
325.847
110.771
930.744
788.407
598.779
373.835
127.075
839.674
711.543
540.548
337.511
114.727
399.473
341.158
260.585
163.044
55.4161
359.427
304.773
231.714
144.786
49.2365
855.548
724.699
550.401
343.644
116.816
1201.38
1017
771.97
481.802
163.754
1292.09
1092.99
829.156
517.321
175.808
1036.32
876.132
664.374
414.447
140.85
381.801
324.279
246.729
154.138
52.3936
192.676
163.464
124.338
77.7168
26.432
183.326
155.525
118.292
73.9335
25.1442
445.226
377.47
286.918
179.235
60.9406
432.741
366.889
278.877
174.211
59.2326
588.875
499.126
379.289
236.888
80.5324
570.735
483.681
367.5
229.5
78.0176
556.593
471.844
358.596
223.967
76.1367
517.748
438.624
333.149
207.991
70.6938
498.354
422.803
321.477
200.799
68.2518
428.105
362.563
275.267
171.787
58.3734
447.187
380.526
289.824
181.049
61.4988
341.19
289.198
219.624
137.013
46.5335
-616.824
-510.117
-381.427
-237.28
-80.9647
-1707.48
-1412.33
-1058.82
-661.858
-227.171
-2707.05
-2217.46
-1661.29
-1048.97
-366.868
-1664.52
-1334.92
-987.225
-620.718
-217.088
-1402.74
-1112.74
-805.12
-486.436
-148.755
-320.629
-231.323
-147.418
-74.0994
-10.4776
-640.282
-532.501
-399.523
-248.596
-84.6839
-1889.47
-1570.52
-1179.42
-735.581
-251.304
-2984.97
-2466.01
-1848.32
-1156.2
-397.396
-3298.85
-2702.06
-2017.97
-1265.18
-437.596
-2513.45
-2041.22
-1514.43
-945.747
-324.914
-734.151
-578.018
-417.09
-255.671
-86.4467
-1442.47
-908.709
-249.888
657.877
957.733
1216.4
565.323
-10880.1
-1722.03
-3157.41
-1507.22
252.926
-3947.82
834.357
2455.54
1161.38
-5905.33
-2689.93
-465.162
-552.246
-3333.61
-1265.56
-255.5
-1007.93
2119.3
1322.29
-504.035
-163.21
-7737.59
-3578.59
-4269.07
-2060.46
-3491.54
-3337.65
-1071.32
1338.02
-382.838
-698.84
-452.827
-385.186
-475.448
-542.956
-560.343
-355.853
-238.866
-175.9
-96.0098
-206.57
-161.243
-117.594
-74.5388
-26.4462
595.165
504.816
383.569
239.376
81.3351
863.451
729.344
551.965
343.421
116.473
1096.66
926.498
701.466
436.677
148.158
513.377
435.792
329.752
204.038
68.705
-7705.95
-6777.84
-5988.02
-5941.9
-6107.43
-1092.37
-714.399
-813.047
-933.061
-657.318
-2197.44
-1597.1
-1357.47
-1168.95
-714.174
-958.782
-620.472
-561.822
-499.088
-222.385
236.384
195.126
130.618
61.634
11.9663
-3273.92
-2660.24
-2029.04
-1368.19
-546.783
755.732
633.07
467.622
280.033
90.5081
2131.4
1737.67
1281.89
788.247
266.743
1041.83
872.717
653.685
402.501
135.176
-4070.98
-3719.41
-3311.93
-3322.93
-3450.4
-1832.38
-1296.19
-1079.64
-899.708
-515.412
-357.379
-289.316
-256.218
-217.194
-105.656
-440.445
-347.993
-275.246
-199.897
-83.9302
-2764.55
-2219.22
-1690.35
-1131.87
-443.046
-1057.32
-850.001
-649.087
-434.024
-161.472
-194.773
-143.852
-106.441
-74.2176
-30.218
-866.206
-706.199
-532.005
-341.054
-120.974
1890.35
1578.61
1183.01
731.114
246.918
1191.61
1004.03
755.922
466.98
157.298
-418.169
-335.392
-257.959
-175.015
-66.8603
-121.503
-89.9916
-71.3762
-54.8894
-23.5943
-4676.89
-3219.35
-2778.5
-2715.55
-2619.88
-2582.2
-1907.64
-1435.56
-1038.33
-494.562
-2819.85
-2190.71
-1734.28
-1421.65
-737.716
-1512.35
-1154.18
-868.94
-628.414
-303.726
-2914.24
-2338.06
-1764.24
-1158.58
-433.86
-2295.68
-1495.29
-1202.89
-973.584
-449.247
-906.065
-729.647
-548.273
-354.827
-128.054
1207.61
1019.73
769.839
476.931
161.029
-293.726
-223.419
-175.503
-130.384
-54.9332
1.95776
42.6087
96.1548
123.252
84.1482
-25.7636
-19882.7
-17553.2
-16722.5
-19058.9
-14571.4
-11535.9
-13114.8
-9955.91
-17244.6
-15123.5
-15889.7
-14951
-13945.7
-11881.3
-14662.4
-16365.8
-14629.3
-13438.5
-15155.7
-12298.4
-10414.5
-10982.8
-8806.36
-15471.1
-13755.1
-14254.9
-12994
-12346.6
-11530.8
-11908.7
-12854.6
-11781.5
-10638.6
-11639.9
-10224.7
-8780.07
-9175.44
-7880.81
-12954.6
-11778.3
-12059.2
-11011.6
-10491.8
-9702.41
-9991.57
-8977.81
-8446.7
-7507.5
-7962.21
-7578.79
-6796.9
-6817.9
-6238.71
-9335.2
-9433.67
-8807.66
-8886.1
-7855.12
-7100.18
-7887.31
-5741.27
-5487.4
-4832.38
-5043.08
-5077.3
-4597.66
-4501.81
-4161.13
-6182.73
-6181.27
-5906.83
-5779.9
-5377.78
-4858.66
-5257.55
-2066.75
-1993.18
-1748.58
-1810.93
-1876.12
-1753.68
-1650.31
-1539.39
-2344.36
-2340.78
-2193.65
-2092.51
-2021.22
-1854.91
-1985.93
-7536.85
-7429.5
-11268.1
-12148.7
-7091.53
-6297.96
-9884.41
-8036.33
-5904.28
-4400.54
-5862.39
-4366.29
-5888.09
-5631.99
-4437.72
-7508.12
-7125.77
-10025
-10934.5
-6618.3
-5994.01
-8719.38
-7511.53
-5877.33
-3875.31
-5776.01
-4095.95
-5279.52
-5076.22
-4477.08
-6853.42
-6535.82
-8495.97
-9110.93
-6146.44
-5723.31
-7604.39
-6733.36
-4865.2
-4213.03
-4854.73
-4446.92
-4540.06
-4545.11
-4613.62
-5532.34
-5330.45
-6363.63
-6683.06
-5066.96
-4743.21
-5894.31
-5383.38
-4670.56
-3797.06
-4595.34
-4052.31
-4304.61
-4273.43
-4137.25
-3819.39
-3702.91
-4206.38
-4365.82
-3445.28
-3192.51
-3965.45
-3644.06
-3280.95
-2926.88
-3208.85
-3079.91
-3007.15
-2953.04
-2941.9
-1422.01
-1380.12
-1537.12
-1587.7
-1278.22
-1175.59
-1457.83
-1343.73
-1071.77
-1072.47
-1145.62
-1169.39
-1113.61
-1081.58
-1073.7
7291.2
23564.8
5782.77
24669.7
4349.39
25516.9
6885.53
39335.3
8460.6
54083.3
8386.46
39382.7
8071.98
32673.1
8401.82
28577.6
5091.79
3153.79
13631.6
8090.39
4993.88
2693.71
14920.3
7407.25
5539.95
4014.32
17517
12343.2
4195.59
3027.17
17595.8
12792.1
9894.91
4180.26
8542.41
3805.24
3926.19
9233.87
34171.8
9259.94
12237.9
4137.72
44013.3
11948.8
11457.3
3958.52
24414.3
7575.12
12528.9
4370.23
21237.5
6750.49
5960.38
2955.66
8693.31
3389.6
6513.97
3521.39
8642.74
3316.76
8259.37
4708.61
7441.74
3234.24
10996.6
3952.78
3781.85
1320.65
12443.1
8633.81
7694.12
5629.22
13884.4
11427.5
7586.91
6565.8
7299.3
4939.03
10297.8
6901.77
5067.72
3727.29
2569.93
2110.22
4889.05
4223.26
2524.35
2436.63
4868.07
3196.18
2490.33
1600.1
6528.65
3550.33
4901.26
5908.46
8942.87
6364.62
7105.36
10114.6
4317.1
2045.75
2889.4
3382.01
2140.7
889.829
1247.2
1253.58
7897.69
14239.7
5353.39
15891.4
9312.45
13941.2
6626.96
16642.4
10573.9
12624.6
8528.63
16243.3
12434.2
14793.2
9381.2
9053.62
9898.62
14784.1
13707.1
13497.5
13862
19987.5
12019.4
9285.79
8060.18
9034.12
14140.1
16516.4
14762.9
19129.1
18363.1
15094.4
13987.2
18877.3
17993.2
13068.1
12742.7
17712.2
17342.4
10797.2
8477.24
10093.1
8797.82
11037
9877.71
11871.2
11401.2
16300.9
16692.1
10090.1
8750.58
9659.69
9301.46
9978.97
10595.5
11235.3
12632.4
14647.7
16959.1
8347.66
6557.07
5727.67
7282.2
11254.4
13694.2
7799.91
12326.8
4864.36
6387.45
7251.18
5982.76
1395.04
4831.86
719.99
1735.32
3984.41
8282.82
1468.72
2869.47
676.731
4104.56
374.753
1438.32
4785.32
4859.77
5439.37
3389.8
7577.49
6069.95
8910.92
6159.67
1131.51
2662.53
2700.88
1543.63
1503.53
1947.28
2123.65
1605.48
11754.2
7138.26
2251.45
13278
7627.67
2497.45
11244.5
7048.61
2379.68
13061.1
7625.88
2492.26
10346.5
6473.33
2128
12747.2
7664.27
2560.51
5560.27
3024.9
823.077
7137.11
4701.18
1631.75
8523.83
5876
2025.51
9860.56
6384.5
2119.82
12626.1
7874.79
2752.67
6591.95
3720.93
1185.55
6732.82
4846.53
1828.46
8001.65
5907.92
2170.09
9991.33
7010.87
2507.72
12773.3
7974.37
2830
305.134
2019.68
2869.47
4123.33
2198.52
2520.19
5522.09
5230.77
586.26
1019.31
624.795
1057.91
492.399
1415.28
875.214
1855.7
3240.02
1583.18
4085.63
2360.91
2174.48
3798.73
3416.84
929.667
6116.96
1487.23
-1923.95
713.241
1784.26
1327
1239.88
1137.2
9822.56
4481.7
2668.87
1652.67
9954.33
4661.64
3373.07
2102.56
9830.31
5015.63
4897.05
3433.77
3514.74
2527.87
1729.34
1654.41
12647.6
11241.6
5956.76
6179.92
13615.9
12778
6719.54
6773.58
5294.43
5447.96
10867.9
9081.09
3554.3
3719.57
1983.7
2258.06
4139.68
4113.46
2269.42
2433.06
3098.89
3342.74
1735.28
2140.46
4720.88
3306.84
4711.09
3348.69
7349.48
4355.01
7012.12
4630.68
2845.84
2397.53
2983.87
2166.37
1589.75
1503.97
1899.67
1273.33
11645.2
8079.03
5860.46
5945.7
11558.8
8276.14
5888.25
5917.12
12004.6
8617.24
5972.22
5754.53
13873.5
14977.2
12662.8
8487.06
4840.97
14191.3
13136
12223.2
10121
6565.84
13305.5
12028.5
9628.42
7434.66
4668.53
6843.81
6082.84
6389.65
7295.65
7068.89
5986.61
6461.92
7215.34
7391.08
5970.04
6539.5
7133.91
10707.3
7558.93
9990.2
6956.09
7879.41
6375.09
7393.38
6338.81
6075.81
7082.07
8896.32
7721.54
7872.23
6878
6735.5
6118.47
5966.46
5939.43
4784.57
6735.73
7038.15
4759.41
4679.43
2794.64
9194.55
7086.6
6394.19
5143.86
3827.98
2298.98
5553.29
4107.1
4731.33
2235.14
1730.66
995.564
5007.89
3622.32
1747.39
1448.1
4099.11
1829.7
1612.76
848.528
3196.91
2947.13
2824.33
4145.76
4449.64
4215.42
3599.53
5306.77
3240.79
2103.72
2049.2
2816.23
980.418
474.528
216.321
526.294
4209.48
1758.74
520.153
4845.56
1261.51
335.831
4264.37
1899.19
583.212
4835.89
1305.33
365.23
3997.81
1888.31
488.787
4764.8
1332.64
312.727
4667.97
2367.19
530.052
4217.28
2031.91
478.633
4138.57
1979.75
534.986
4108.77
1921.49
407.073
4760
1312.92
196.821
5908.84
2970.97
794.876
5322.5
2640.82
721.379
4845.47
2389.46
694.119
4598.93
1963.79
482.449
5161.77
1231.6
301.163
1740.66
622.325
124.774
-183.655
721.287
271.787
74.2456
-36.0983
1852.48
686.825
179.692
-110.384
926.3
382.534
184.637
85.5488
1989.37
764.006
271.182
3.24854
1585.76
734.949
281.905
61.8049
1209.1
675.951
232.061
-16.7754
1131.62
735.231
421.003
245.897
1648.47
728.19
219.097
-169.837
1408.75
614.412
267.48
-167.301
1946.31
752.769
244.101
-116.692
1758.92
683.891
272.867
-273.381
1323.16
676.665
265.584
-56.0916
1082.23
542.218
287.406
2.019
977.681
594.973
348.635
211.052
746.436
457.345
302.42
175.576
2218.65
753.216
125.752
-365.626
2191.7
693.989
184.252
-497.088
2217.84
765.468
147.025
-347.326
2122.09
674.952
192.55
-480.525
2177.12
769.102
223.351
-242.695
1983.39
639.66
236.133
-390.223
1911.41
712.145
306.705
-21.2475
2176.71
717.196
331.69
-454.788
1706.46
637.104
306.383
-105.467
1733.53
490.102
165.625
-334.947
689.847
178.449
44.8109
-68.8603
1786.79
521.632
183.447
-316.341
715.972
191.968
56.959
-54.3295
1826.84
561.106
226.088
-276.141
732.605
209.362
73.1797
-37.9752
1650.42
530.153
259.922
-215.537
713.641
216.858
100.39
-8.62692
1514.38
528.371
280.977
-122.132
641.593
229.47
136.617
31.0997
1055.84
425.518
206.666
-37.9255
605.789
299.053
179.673
93.8478
1219.24
432.878
213.985
-89.6643
611.345
260.937
158.882
63.1687
851.432
410.748
224.485
34.266
542.92
313.359
195.687
123.867
602.001
371.375
249.967
152.758
452.367
310.275
214.307
159.821
-17.5478
6.02117
6.35508
4.37583
3.26347
-3.15332
4.10759
3.53361
2.37038
1.76297
8.26775
19.4549
13.7934
8.86384
6.5044
24.3529
19.0906
11.9762
7.47739
5.44271
35.2811
35.0741
22.7891
14.424
10.563
98.9473
64.795
38.8917
24.066
17.4975
118.548
76.3956
45.8587
28.46
20.7708
172.758
101.165
58.9392
36.2379
26.403