/*--------------------------------*- C++ -*----------------------------------*\
  =========                 |
  \\      /  F ield         | OpenFOAM: The Open Source CFD Toolbox
   \\    /   O peration     | Website:  https://openfoam.org
    \\  /    A nd           | Version:  11
     \\/     M anipulation  |
\*---------------------------------------------------------------------------*/
FoamFile
{
    format      ascii;
    class       volScalarField;
    location    "2";
    object      gradTy;
}
// * * * * * * * * * * * * * * * * * * * * * * * * * * * * * * * * * * * * * //

dimensions      [0 -1 0 1 0 0 0];

internalField   nonuniform List<scalar> 
5712
(
11798.6
6804.13
19120.9
12540
20869.3
15454.7
32746.3
40617.4
43059.7
52721
27855.1
24212.3
17691.9
14029.3
8883.4
6010.08
19781.6
20202.6
17052.4
20014.6
26724.3
23824.6
30863.6
24941.5
8322.59
5985.97
4679.27
3478.68
9952.58
8101.19
6043.69
4888.37
18123.6
18796.2
18496.9
15583.7
14385.6
11260.4
11300.7
12839
18207.3
18124.7
38227.5
39523.2
27062.7
27883.8
15466.6
13042.8
16834.8
11999.8
7831
8043.03
6423.31
9001.06
3361.15
4054.89
8804.23
12072
5244.61
6123.73
9749.46
16393.4
6758.66
11075
2577.02
6583.2
2143.65
4911.19
17802
21994.4
18384.5
21911.8
21773.4
21979.8
22190.5
21707.5
15653.8
21216.8
16077.6
20950.3
18114.7
21766.1
18111
21717.4
22382.8
21434.7
22310.4
21232.6
14466.8
21308
13967.7
21384.9
17681.5
20767.9
22326.7
31172
18724.4
23977.7
22125.3
33851.2
16765.9
18282.4
22415.4
29971.1
16589.1
17107.9
22656.9
29745.2
5303.42
6939.66
13527.8
23613.1
6580.13
7485.27
17428.3
26869.6
8198.73
8282.84
22107.5
30018
24510.7
26279.5
20780.1
20115.7
29193.8
26449.9
25012.8
21203.1
18422.8
33360.8
24109.2
23830.7
21270.8
21193.6
38138.2
2050.35
2461.53
4389.16
10000.4
2911.48
3295.69
6067.66
11218.8
4344.2
3678.95
8258.62
12883.4
26177.5
25849.8
23637.4
23241
20297.1
18580
15391.1
13609.6
10872.1
15119.6
23840.9
23014.1
24057.8
23661.6
20943.7
19622.5
17360.7
15558.1
11591.5
15273
23838.3
26839.7
23771.1
27502
23020.8
23833
22472.6
24000.8
21700.3
22075
21523.1
21433.6
23584.1
27618.1
23475.9
27592
21815.3
24295.8
21634.7
24239
21783.6
22025
21777.2
22011.2
18281.4
17380
11791.9
13116.7
18154.9
16921.3
11612.2
13162.5
18536.4
17329.4
12049.3
13172.3
18611.3
17154.3
12424.3
13181.5
1670.24
1131.5
786.329
969.351
667.668
623.06
2322.51
1390.1
1053.59
1912.34
1538.62
1327.33
2700.61
2248.96
2256.64
3363.97
2752.63
2472.71
24686.9
22279.8
20595.4
22738.6
21068.5
19731.1
16329.5
15148.6
14500.2
11107
9626.19
8998.18
5128.18
3782.1
3203.94
22331.3
20660
19236.5
22946.9
20893.7
19297
17016.7
14607.8
13241.1
11113.8
8886.49
7977.28
5454.45
3764.38
3019.71
27107.4
26525.6
29527.5
26496.7
30385.7
26501.1
36689
27911.6
21013.8
21342.2
20753
19267
23576.5
22213.6
23152.4
19791.5
22922.1
22752.7
21118.1
22586.2
28142.6
25275.6
27909.8
28338.3
30310.4
31348.7
23246.5
24123.6
20818.2
20207.9
25317.2
25973.5
16491.3
8884.68
15417.5
9836.67
16734.3
8965.38
15374
9775.19
16513.3
9014
15336.8
10188.3
14917.5
10659.4
15098
10572.6
21221
18152.8
21102.5
18127.3
23424.2
21160.5
23661.5
20951.8
20674
15149.2
21564.2
14951.1
21570.8
18041
21843.4
17836.9
24271.1
20779.7
24287.8
20513.4
20474.4
15194.4
20415.9
15101.2
13574.1
9053.22
12005.8
7688.6
12651.2
8112.51
11539.4
7184.7
13907.6
9620.06
12199.1
7923.14
13926.2
9968.07
12168.5
7980.35
2582.24
1344.61
4716.87
2502.07
2760.32
1659.73
5030.21
3016.27
3407.02
2523.12
5580.75
3983.17
13183.1
20381.4
9509.23
9126.95
6472.08
19966.8
13933.6
8186.02
8231.61
5323.77
20756.9
16369.1
13034.8
10155.2
6298.47
715.559
543.694
1402.31
1021.4
1028.3
713.624
2019.75
1604.25
1804.59
1413.62
2979.36
2426.02
20285.4
19668.8
13785.7
13252.3
8984.79
9095.97
7570.24
6997.78
4549.97
3739.55
19021.8
17335.6
14782.1
13024.5
11536.5
10297.9
8784.8
7984.07
5567
5544.41
15137
12305.6
15221.2
11999.9
18156
15113
18105.8
14887.6
12777.2
10422.4
12403.4
10469.9
15219.5
11807.3
15124.7
11787.2
18030.8
15161.9
17856
15114.8
13003.2
10254.4
12980.9
10390.5
9968.96
8494.72
6578.11
6983.77
9611.81
8318.59
6274.25
6624.76
10391.3
8659.11
6745.61
7395.73
10639.9
8659.12
7012.1
7503.05
1824.17
1608.17
1333.51
7902.78
4233.6
3464.68
1770.92
1750.6
1556.82
8569.38
5009.56
4251.83
2428.85
2729.58
2802.28
9468.07
6276.91
5598.58
18550.7
17349.8
16476.4
12757.7
12381.5
12134.5
9355.21
9251.78
9247.88
8069.84
7813.31
7625.46
10779.3
7759.17
7020.43
15817.6
14586.5
13749.5
11848.5
11038.2
10571.9
9911.45
9210.22
8805.4
9583.28
8514.35
7886.55
13108.5
8758.09
7875.57
4899.1
3092.88
2207.17
1856.34
5527.75
3367.43
2331.51
1901.21
4922.59
3088.14
2211.58
1870.01
5649.12
3437.07
2377.79
1924.03
4905.19
3051.4
2213.79
1862.16
5762.61
3479.12
2428.44
1924.65
6209.83
3689.49
2484.94
2000.26
6398.79
3835.69
2565.75
2076.29
5234.08
3250.8
2301.72
1885.58
4240.3
2829.24
2101.49
1811.57
4574.11
2933.58
2142.61
1755.05
3890.64
2660.97
2015.25
1738.39
5676.66
3490.57
2414.49
1971.16
4449.35
2952.4
2156.69
1869.39
5926.68
3653.69
2494.94
2033.16
4540.61
3040.56
2202.96
1903.11
3665.21
2638.66
2003.66
1760.04
2314.59
2092.4
1754.88
1654.37
3673.15
2623.82
1999.65
1755.61
2422.11
2121.56
1765.4
1663.57
3760.62
2619.36
2008.18
1763.73
2754.42
2219.29
1804.37
1704.66
3705.87
2548.06
1967.68
1797.4
3039.15
2286.42
1853.61
1694.32
3422.36
2464.96
1917.42
1712.1
934.443
1646.9
1386.04
418.54
-629.672
1397.45
1234.75
444.292
1178.48
1727.34
1418.09
442.029
-323.999
1487.35
1262.59
453.879
1636.23
1869.68
1467.15
440.609
194.059
1638.99
1303.67
459.187
2195.5
2038.48
1538.16
478.757
744.214
1806.68
1362.49
479.075
2562.02
2192.14
1626.11
558.915
886.806
1932.69
1417.08
496.421
2733.34
2359.8
1665.76
530.839
557.392
2063.86
1518.06
526.829
2666.02
2285.51
1635.55
531.281
520.856
2002.85
1467.07
508.798
2752.6
2412.58
1690.55
494.435
494.531
2116.65
1552.58
530.104
2811.92
2468.65
1736.72
505.429
598.33
2175.39
1594.7
543.358
1686.76
1275.13
870.77
503.184
164.272
1668.09
1272.57
871.441
503.867
164.507
1707.66
1285.49
875.785
505.498
164.944
1693.93
1285.82
878.154
507.038
165.438
1747.73
1300.28
882.301
508.43
165.79
1726.21
1301.63
886.08
510.798
166.552
1752.26
1319.71
896.567
516.077
168.153
1793.55
1345.77
911.527
523.611
170.438
1788.61
1318.07
891.706
513.014
167.165
1909.52
1339.87
897.876
515.298
167.789
1797.24
1313.48
887.165
510.462
166.361
1906.96
1332.01
892.851
512.712
166.992
1805.05
1333.96
901.101
517.776
168.617
1944.29
1355.29
906.427
519.599
169.101
1845.87
1359.25
915.177
524.807
170.75
1987.65
1377.85
918.616
525.675
170.952
1733.68
1281.57
870.72
502.638
164.067
1823.2
1288.78
870.905
502.319
163.943
1753.33
1289.74
874.452
504.315
164.546
1838.8
1294.94
873.754
503.607
164.312
1793.4
1303.44
880.329
506.943
165.297
1873.16
1306.14
878.821
505.913
164.973
1858.64
1319.18
886.286
509.524
166.029
1914.34
1318.19
884.607
508.587
165.734
1920.51
1327.29
889.667
511.064
166.477
9869.62
15180.5
10341.7
15464
11034
15827.2
11498.6
16045.2
11022.8
15408.2
10207.7
11500.4
10219.7
12055.8
10265.2
11401.2
10444
11539.7
8743.19
1496.71
319.659
71.6651
12.6857
9724.23
2767.39
671.678
152.326
26.9543
8828.34
1484.19
314.698
70.286
12.4082
9803.71
2754.33
665.975
150.319
26.3714
8903.41
1476.41
310.415
69.031
12.1613
9862.14
2741.18
659.245
148.254
25.9711
8814.87
1430.51
298.083
66.1231
11.6416
9738.84
2681.82
642.642
144.281
25.2495
8352.81
1321.31
274.749
61.1341
10.7878
9217.15
2542.79
611.32
137.641
24.1237
7424.94
1221.21
262.208
59.2974
10.5442
7600.23
2199.73
542.89
124.261
21.9873
7696.23
1245.58
264.292
59.393
10.5268
8062.39
2329.25
569.785
129.379
22.7713
7319.26
1215.42
262.172
59.4301
10.578
7443.81
2141.6
528.996
121.462
21.5525
7290.13
1205.66
259.856
58.9277
10.4795
7449.79
2127.78
524.196
120.637
21.3712
33718.9
47815.2
46723.3
32720.4
19273.9
20283.3
28422.1
29692.1
22251
24938.1
35378.4
48268
44724.2
59246.9
29210.8
33294
22923
24489.8
12444.5
13644.9
4907.73
3236.26
838.43
642.13
723.375
632.723
774.186
4789.23
4718.6
2841.58
3987.7
3816.4
1648.96
2285.32
2069.61
1360.33
1569.38
1284.06
4319.59
2329.43
1478.82
1307.5
1668.42
1444.82
1128.63
1065.55
998.6
875.698
1195.54
1078.18
4524.71
2736.97
3143.16
1992.76
1637.01
2311.99
1151.72
900.245
1267.68
9957.5
10014.7
10185.9
11396.4
18633.4
7154.83
8185.74
8933.31
10009.1
11632.4
2203.27
3144.05
3858.76
4345.75
4597.67
1700.85
2454.5
3038.45
3436.85
3639.81
1913.49
2754.6
3400.01
3835.34
4054.91
1677.66
2424.14
3002.77
3396.14
3595.39
2042.68
2930.34
3608.17
4066.29
4298.96
10049.6
10321.4
10164.5
10748.8
16697.5
9874.96
9965.97
9639.58
9840.66
11194.9
6519.37
7708.18
8304.06
8859.83
9544.54
8604.68
9011.84
8764.67
8683.54
8889.27
8230.17
8696.4
8431.48
8211.13
8204.99
4105.48
5418.95
6244.81
6768.97
7060.72
5424.49
6697.92
7358.53
7784.48
8088.98
4977.29
6244.77
6899.28
7253.44
7439.32
3463.29
4713.61
5551.61
6079.1
6347.63
3924.77
5205.58
6002.11
6478.65
6717.42
3289.43
4513.97
5345.2
5864.13
6120.68
9241.43
9818.4
9957.95
10802.1
16988.2
5529.95
6879.21
7710.61
8431.91
9161.7
3738.02
5044.05
5922.07
6505.57
6835.89
3343.08
4588.39
5464.75
6059.04
6390.78
4152.88
5500.83
6405.2
7060.05
7502.79
3663.04
4976.58
5902.52
6562.77
6964.06
2918.22
4073.96
4925.98
5518.64
5846.24
2770.6
3892.91
4718.07
5275.19
5567.8
2608.76
3685.18
4473.15
4988.95
5246.92
2300.96
3279.42
4013.03
4501.62
4747.82
3082.79
4275.21
5116.47
5664.38
5946.41
2800.82
3927.84
4747.64
5292.59
5574.49
9413.71
9755.61
9976.82
11082.8
17879.5
6251.1
7459.15
8304.2
9289.35
10546.4
7287.67
8521.38
9144.49
10131.8
12286.4
4849.2
6265.31
7250.96
8094.78
8803.22
4093.88
5469.38
6435.82
7171.9
7674.42
5497.67
6876.72
7775.44
8602.49
9448.47
2975.97
4148.23
5004.65
5593.38
5915.2
2360.39
3355.47
4101.57
4603.26
4860.1
3250.66
4482.26
5363.13
5969.3
6309.63
18554.6
12326.2
19111.3
13655.3
24761.2
35404.8
25885.2
35236
19643
20769.6
16862.1
20076.4
22299.3
21186.4
28420.3
23273.4
14314.1
13394.4
7013.52
5990.74
15596.9
14266.8
8053.98
6577.55
19292.5
20843.8
19765.1
18023.6
20157.7
13277.8
11107.8
12805.6
18129.4
18097.5
37699.3
39413
26333.1
27686.4
16067.9
13171.4
17532.5
12123.8
8501.58
8205.03
14098.1
15608.3
5897.71
6435.18
15509.8
17705.5
7354.57
8123.2
14787.4
20681
8585.69
13245.9
3000.32
7329.24
2228.32
5056.49
18279.8
20887.5
18222.2
21265.3
19917.5
20189.8
20997.5
20706.7
16653.4
21066.1
18894.2
20769.7
17922.2
21419.5
18035
21604.9
21769.3
20923.7
22130
21074.4
14759.8
21200.5
14013.2
21342.3
18585.9
22013.1
22561.6
31484.6
20249.8
26070.9
22635.9
34518.9
17174.8
18879.9
22500.1
30103.5
16693.4
17273.2
22671
29778.5
19335.3
20883.5
24266.6
36005.1
19448.4
19896.8
25971.1
36473.8
19157
18816.5
27946.4
36181.5
18481
19330.5
19785.8
21096.3
31779.7
18573
17379.6
21115.4
19277.5
36335.3
19378.2
20243.9
20121
21865.7
39283.6
11556.9
10565.1
10739.1
13907.4
12651.3
11583.3
11126.8
14291
13926
12065.9
11638.5
14605.8
17992.3
17277.5
16913.3
16434.1
19572.3
18279.1
16189.3
14563.6
12188.6
15238.1
19022.4
18780.4
20187.2
20299.8
19406.8
18250.3
17642.5
15660.2
12003
14734
21980
24727
22833.4
26367
20745.8
21635
21380.2
22917.1
21192.6
21414.4
20654.1
20376.9
23125.9
27068.3
23336.6
27428.2
21305.1
23771
21483.5
24085.8
21508.1
21685.9
21689.8
21909.6
18154
17116.6
11829.5
13024.4
18075.1
16628.2
11797.9
13073.4
18439.3
17171.9
12043.7
13108.6
18575.2
17102.9
12417.1
13157.5
9666.29
9813.04
4165.55
3833.83
10782
10427.7
4666.94
4463.55
10503.8
9832.43
5311.72
5124.11
16996.1
16462.6
16621
16671.1
16611.2
16083.6
12521.9
11190.3
6267.05
5166.27
19049.7
18248
20405.9
19581
16243.1
15032.8
11699
10031.1
5761.84
4322.33
22209.4
21099.9
27265.4
23796.8
24739.1
22032.9
33919.9
25558.1
20314.2
16758.8
22143.9
17592.1
20190.2
17039.7
22238.3
17821
20772.5
18396.7
18779.2
17450.4
21308.4
22606.1
26554.1
27926.4
29170.7
31018.8
21901.5
23649.4
19768.8
19908.3
23792
25460.1
13677.5
10113.4
14120.5
10342.9
13957.8
10024.7
14310
10193.7
13869.4
9875.15
14253
10388.4
14290.5
10698.1
14893.8
10578.3
17350.7
16841.8
19176.9
17318
19887.7
19052.6
21782.8
19780.3
18863.5
14849
17917.7
14666
20616
17610.9
21559.7
17706.6
23357.2
20189.9
24023.2
20335.3
19578
15005.6
20154.7
15042.5
13171
9471.7
12213.2
8071.01
12602.9
9184.67
12146.8
7992.92
13593.7
9774.95
12264.4
8101.83
13815.6
10005
12185.1
8038.45
13168.4
13333
9497.69
8756.78
13307.1
13444.9
9351.49
8683.8
13260.5
12917.1
9117.94
8583.42
15357.2
18106.1
16171
12051.8
8857.98
16797.1
15728.4
17592.4
12090.5
8559.8
18521.1
16425
14590.8
12260.6
7922.08
13901.4
15042.1
8699.77
9374.46
13758.4
14642.6
8621.65
9245.63
12844.9
13318
8249.89
8386.35
16610.6
15732.7
15021.4
14449.9
15615.7
16039.3
12204
12982
8009.81
7838.93
16820.5
15412.2
15166.9
13853.2
13662.6
13063.1
11581.1
11580.5
7392.79
7883.34
14850.5
12702.2
14923.3
12132
16794.4
14251.8
17323.5
14436.8
12947.2
10990.7
13032.9
11761.3
15030
11862.5
15065.5
11801.8
17638.9
14939.6
17739.1
15051.3
13024.1
10499.7
12973.7
10452.4
10471.8
9293.1
7072.31
7722.31
10758.3
9985.3
7249.87
8106.64
10591.9
9014.38
6975.57
7790.21
10696.8
8762.69
7090.06
7627.04
17874.9
17818.4
24333.7
20516.5
17159
17221.9
23333.8
19613.3
15068
15688.9
21418.9
18233.2
15236.3
14710.1
14028
13825.3
16219.6
16647
14975.9
14932.4
19653.5
16687.1
14390.5
13687.3
13189.4
13004.2
13443.5
13766.7
14376.8
14041.6
19181.9
15317
6387.03
4081.44
2801.52
2261.1
6631.6
4215.33
2880.55
2280.62
6270.49
4006.3
2754.29
2238.57
6570.93
4170.65
2852.01
2253.42
6057.79
3858.8
2688.03
2183.26
6478.43
4069.63
2824.71
2201.86
6627.68
4060.77
2753.26
2196.9
6538.6
3964.75
2656.38
2144.7
5837.68
3716.89
2626.14
2129.52
4646.63
3162.07
2330.69
1995.04
5523.42
3595.97
2563.2
2052.1
4553.96
3172.87
2320.2
1957.06
6010.14
3768.91
2618.42
2127.9
4668.91
3140.32
2300.63
1994.28
6030.05
3746.9
2565.08
2088.02
4609.83
3101.78
2252.17
1946.03
5876.12
3827.54
2656.52
2192.7
5025.12
3452.3
2465.17
2114.88
5721.85
3749.54
2611.45
2158.93
4918.97
3408.1
2440.67
2103.88
5505.2
3623.08
2557
2128.89
4840.59
3350.4
2411.2
2100.96
5046.59
3391.21
2437.9
2116.7
4664.21
3254
2367.38
2015.11
4404.77
3157.21
2295.39
1956.95
3769.46
3068.87
2046.41
575.929
1824.44
2822.93
1907.07
635.852
3806.31
3067.23
2046.88
596.092
1986.8
2826.27
1904.32
638.241
3872.87
3047
2023.98
568.712
2212.13
2813.65
1879.45
623.537
3832.68
2994.84
2028.25
598.386
2236.9
2768
1859.46
623.327
3563.12
2889.01
2022.98
676
1723.24
2657.64
1822.81
619.285
3040.21
2655.13
1905.54
618.542
711.446
2377.84
1734.05
601.075
3227.96
2755.23
1960.21
636.173
897.702
2498.59
1772.68
606.363
2905.38
2574.58
1836.34
550.176
549.382
2287.47
1679.35
575.564
2855.98
2520.27
1784.93
524.328
608.51
2228.8
1635.75
558.347
1992.39
1457.6
971.838
553.116
179.258
1947.38
1445.75
968.521
552.014
178.973
1991.23
1451.99
967.894
550.998
178.6
1940.42
1437.08
962.861
549.05
178.062
2006.56
1447.3
963.246
548.378
177.779
1934.27
1427.05
956.16
545.545
176.994
1895.35
1406.75
945.4
540.334
175.447
1846.17
1378.59
930.041
532.83
173.214
1979.53
1431.5
954.366
543.983
176.465
2091.21
1440.92
952.962
542.439
175.934
2039.89
1448.2
960.76
546.721
177.239
2141.21
1453.4
958.528
545.001
176.674
1931.21
1411.82
944.416
539.238
175.067
2062.03
1423.8
944.043
538.184
174.685
1889.57
1386.22
930.264
532.304
173.009
2028.11
1401.7
931.772
532.197
172.92
2080.28
1474.94
975.796
554.266
179.54
2224.91
1490.58
978.553
554.992
179.714
2084.55
1471.48
973.027
552.736
179.058
2226.3
1487.48
976.361
553.81
179.344
2101.83
1466.83
968.637
550.306
178.294
2233.2
1481.46
972.165
551.599
178.655
2148.02
1465.14
964.703
548
177.56
2243.57
1472.55
966.958
548.935
177.821
2197
1461.82
961.989
546.562
177.117
11787.3
15532.4
11848.3
15539.8
11979.4
15537.3
11777.8
15343.3
11001.5
14581.3
10185.4
11406
10222.6
11872.9
10243.9
11348.9
10435.7
11523
9095.3
1515.75
319.145
71.0361
12.5272
9792.72
2774.4
669.171
150.973
26.6238
9056.3
1490.77
312.697
69.4674
12.2294
9749.21
2739.84
660.218
148.513
25.9916
8938.3
1463.8
306.127
67.9181
11.95
9635.34
2696.33
648.912
145.814
25.5192
8681.75
1403.04
292.194
64.8296
11.4143
9387.51
2614.74
628.98
141.397
24.7518
8182.29
1293.19
269.11
59.9318
10.5806
8876.43
2475.46
597.565
134.787
23.6413
7366.59
1209.86
259.477
58.6462
10.4262
7522.86
2173.61
536.025
122.649
21.7001
7600.36
1227.05
260.093
58.4424
10.3593
7914.02
2284.51
559.121
127.029
22.3668
7286.84
1209.19
260.636
59.0532
10.5084
7404.07
2128.1
525.281
120.555
21.3865
7279.65
1203.66
259.36
58.8045
10.4565
7437.28
2123.63
523.038
120.348
21.3175
33270.6
47525.3
45697
31366.6
24485.7
29204.4
23663.3
29088.5
27444.2
43612.1
29106
44664.2
189.094
205.163
240.891
298.97
384.029
501.7
202.572
219.154
255.882
315.029
399.892
514.487
178.975
173.999
195.968
192.654
233.887
234.471
296.04
304.3
386.033
404.39
504.404
525.371
658.915
863.445
1133.93
1498.53
1922.26
2227.58
663.014
848.719
1073.85
1329.7
1576.4
1736.84
506.211
742.384
932.453
1065.42
1133.81
548.982
804.571
1009.93
1153.37
1227.08
644.101
942.861
1182.16
1348.88
1434.42
798.447
1166.65
1460.19
1663.97
1768.31
1023.72
1491.61
1862.14
2118.16
2248.96
1333.5
1934.5
2405.92
2729.93
2895.29
542.107
794.654
997.696
1139.6
1212.55
586.18
858.58
1077.15
1229.65
1307.96
683.799
1000.14
1253.06
1429.03
1519.24
840.673
1226.93
1534.12
1747.06
1856.03
1064.91
1549.29
1931.81
2195.84
2330.77
1365.85
1978.13
2457.15
2786.42
2954.8
479.176
702.904
883.109
1009.25
1074.16
465.859
683.428
858.749
981.51
1044.68
524.466
768.877
965.43
1102.82
1173.44
515.608
755.955
949.319
1084.51
1154.01
625.514
916.003
1148.92
1311.31
1394.64
627.082
918.355
1151.97
1314.86
1398.44
790.857
1156.11
1447.63
1650.12
1753.8
812.892
1188.27
1487.85
1695.87
1802.33
1029.47
1500.87
1874.56
2132.79
2264.62
1078.29
1571.68
1962.48
2232.22
2369.79
1341.58
1947.98
2424.12
2751.04
2917.51
1397.34
2028.74
2523.9
2863.13
3035.45
1742.88
2510.67
3104.83
3511.53
3719.97
2265.45
3226.87
3957.71
4459.37
4721.71
2934.53
4103.79
4972.57
5581.75
5919.45
3789.5
5144.37
6125.71
6859.04
7325.38
4707.42
6138.33
7154.47
8007.09
8675.9
5340.7
6781.07
7797.55
8732.16
9565.48
1752.12
2520.95
3115.29
3522.88
3732.51
2227.86
3175.61
3897.63
4394.17
4653.81
2791.88
3928.24
4779.48
5372.56
5694.13
3413.11
4722.33
5686.3
6377.55
6777.18
3989.95
5422.13
6462.22
7239.53
7727.17
4356.93
5854.73
6936.15
7770.07
8322.38
191.595
212.784
254.204
318.87
411.696
538.444
205.157
227.019
269.487
335.016
426.884
548.692
181.48
176.583
203.677
200.66
247.503
248.757
316.751
326.41
415.308
435.535
544.932
569.799
704.462
913.972
1182.59
1535.3
1941.89
2233.17
703.328
891.971
1114.96
1362.63
1596.9
1743.68
512.919
752.285
945.005
1079.86
1149.25
569.51
834.985
1048.53
1197.86
1274.65
680.002
996.152
1249.94
1427.13
1518.17
852.223
1246.75
1562.44
1782.34
1895.2
1098.76
1604.01
2006.44
2285.99
2429.33
1433.7
2085.92
2601.97
2959.48
3142.93
549.056
804.941
1010.76
1154.67
1228.66
607.392
890.066
1117.19
1275.87
1357.42
720.532
1054.78
1322.69
1509.54
1605.49
894.746
1307.63
1637.34
1866.76
1984.46
1138.17
1659.22
2073.17
2360.46
2507.83
1459.15
2119.18
2639.9
3000.53
3185.86
485.9
712.832
895.68
1023.71
1089.6
472.796
693.666
871.706
996.403
1060.58
545.215
799.578
1004.35
1147.63
1221.33
537.145
787.806
989.677
1130.96
1203.63
662.205
970.405
1218.04
1391.03
1479.93
665.569
975.404
1224.43
1398.41
1487.82
846.798
1239.37
1553.82
1772.98
1885.46
872.622
1277.21
1601.34
1827.23
1943.13
1108.88
1619.86
2027.36
2310.54
2455.68
1162.91
1698.82
2126.18
2423.04
2575.13
1452.19
2115.33
2641.03
3005.21
3191.8
1518.84
2213.14
2763.66
3144.77
3339.82
1868.22
2702.68
3356.69
3809.42
4043.14
2406.59
3447.82
4253.23
4814.13
5109.81
3074.27
4330.69
5285.41
5965.95
6345.45
3901.35
5337.88
6404.86
7213.68
7727.63
4773.97
6264.02
7344.43
8257.33
8968.56
5361.88
6823.96
7864.38
8822.35
9673.18
1862.87
2690.24
3336.96
3784.76
4016.43
2347.95
3362.1
4145.38
4690.17
4976.78
2907.88
4112.47
5029.06
5675.25
6027.35
3508.34
4878.21
5902.62
6644.84
7074.9
4051.08
5525.54
6609.07
7424.29
7935.66
4377.78
5890.76
6988.05
7836.11
8397.52
4890.44
3235.64
899.494
693.824
795.422
690.766
841.931
4489.61
4315.91
2803.55
3548.61
1724.34
2286.98
1449.77
1609.29
1357.42
4186.68
2359.83
1564.83
1391.78
1740.56
1515.21
1190.65
1143.26
1097.64
965.509
1289.68
1165.82
4474.32
2743.89
3118.07
2025.72
1691.6
2341.59
1223.21
976.325
1345.48
9957.25
10069.4
10289.7
11564.6
18940.1
7169.88
8234.74
9019.65
10136.4
11798.4
2374.36
3413.11
4220.04
4780.48
5073.66
1843.19
2672.84
3325.27
3776.39
4008.25
2113.06
3063.47
3809.16
4322.88
4585.89
1837.5
2669.34
3324.88
3777.49
4009.22
2231.58
3225.41
4001.97
4537.86
4813.78
9894.95
11008.3
11640.7
12973.4
20166.9
9721.69
11043.9
11873.4
13081.6
15224.2
6678.63
8419.89
9648.42
10774.3
11842.5
8482.55
10230.6
11178.3
12165
13036
4407.7
6067.84
7281.95
8144.24
8637.14
5657.65
7465.04
8733.82
9695.41
10323
3767.35
5297.87
6442.02
7232.68
7655.65
4154.43
5789.92
6995.3
7830.05
8282.81
3546.1
5021.4
6132.77
6894.98
7294.75
9180.78
10224.8
10874.1
12213.4
19302.7
5731.82
7412.65
8629.85
9707.56
10684.8
4028.26
5598.92
6766.91
7601.8
8082.03
3605.14
5053.77
6145.77
6924.73
7366.03
4407.25
6004.14
7185.81
8086.89
8684.19
3884.74
5375.51
6492.09
7318.83
7821.8
3098.98
4373.02
5344.13
6036.66
6422.95
2996.71
4266.39
5239.26
5918.77
6281.89
2894.85
4153.67
5122.97
5788.24
6131.88
2553.94
3680.3
4554.82
5156.52
5466.46
3371.87
4781.99
5851.57
6592.31
6986.28
3058.72
4359.46
5355.21
6046.33
6412.34
9415.32
9928.71
10308.9
11609.4
18833.9
6308.09
7609.23
8558.51
9651.66
11002.9
7349.27
8834.37
9745.62
11029.8
13495
4971.44
6513.79
7642.35
8621.69
9425.69
4272.15
5800.86
6935.83
7823.65
8423.38
5659.45
7281.18
8467.03
9567.6
10611.4
3186.61
4501.27
5502.68
6213.27
6606.49
2576.53
3701.72
4573.38
5176.44
5490.55
3487.11
4892.55
5955.43
6716.97
7149.49
9168.99
8660.02
7766.2
6499.62
4746.1
1863.45
18870.9
19212.2
21775.4
22474.3
18484.6
19590.8
20809.2
20146.2
15504.1
19169.4
16158.2
19723.5
18534.9
16706.5
25950.3
18137.4
18338.3
20545.6
21001.5
17487.5
18576.6
19889
19430.4
15433.5
23143.6
16000.2
23012.5
18707.2
20314.5
27835.3
17310.4
17382.7
18977.4
19187.5
16740.2
18230.1
18654.6
18693.9
17690.5
20459
18451.2
20462.9
20306.6
22352.2
25041.7
16523.5
16615
17549.9
17600.7
16290.8
18015.9
17398.7
17713.1
16562.4
17873.8
17295.1
17416.8
18547.8
20076.3
21620.1
15700.8
15826.2
16572.6
16539
15973.5
17850.5
16568.7
17067.8
15667.3
14736
16426.3
14146.9
17038.8
16897.7
17840.9
15333.4
15502
15922.5
15856.2
15578.6
17130.1
16033.8
16454.1
14947.4
12658.8
15511.9
12402.3
15843.2
14839.1
16143.6
21656.1
20816.4
22721.4
23875.1
20055
20022.6
21157.8
20191.2
19120.3
14214.4
19072.6
14286.8
16940.9
15359
18510.3
20424.9
19818.2
20990.6
21748
19355.5
19489
19952.5
19142.6
17712.3
13756.6
17693.5
13849.2
15522
13847.5
17129.8
18803.8
18445.6
18912
19279
18178.7
18326.9
18393.7
17905.7
16801.5
13466.7
16598.4
13205.8
14892.2
12663
16790.5
17260.5
17057
17304.9
17468.6
16882.1
16971.3
17124.7
16739.8
15820.1
13830
15714
13513.8
14259.9
12695.3
17039
16444.8
16310.6
16403.5
16479.8
16009
16093.7
16363.1
16120.3
15564
14822.4
15495.7
14671
14313
13164
17542.6
15860.9
15737.2
15877.9
15925
15492.3
15760.9
15815.5
15713.8
15440.8
15445.5
15432.4
15362.9
14380.3
13660.2
18199.7
11607
6586.71
19113.4
12547.2
20890.8
15441.9
32774.6
40631.3
43110.8
52746.3
27905.2
24212.8
17699.7
14055.7
8617.42
5735.95
19784.7
20205
17051
20015.7
26737.6
23830.3
30872.1
24945.8
8151.93
5866.57
4521.69
3373.84
9924.72
8091.35
6042.08
4902.05
18118.7
18791.4
18495.4
15584.1
14381.3
11263.4
11301.6
12840.5
18208.9
18126.4
38234.5
39528
27066.1
27886.1
15467.4
13044.3
16836.3
12001.1
7832.15
8044.14
6308.59
8859.56
3271.4
3955.48
8806.04
12084.4
5259.09
6140.66
9750.68
16399.7
6764.91
11083
2578.4
6586.27
2144.13
4912.37
17803.1
21995.5
18385.9
21912.8
21776.2
21981.3
22192.8
21708.7
15655.7
21218
16077.7
20951.2
18115.9
21767.1
18112
21718.3
22384.6
21435.6
22311.6
21233.1
14468.2
21309.3
13968.8
21386.1
17683.4
20771.7
22328.4
31174.5
18725.9
23981.7
22127
33854.2
16767.7
18285.2
22417.1
29973.5
16590.8
17110.2
22658.6
29747.5
5218.9
6856.72
13349.1
23418.8
6585.75
7489.13
17444
26888.8
8201.27
8284.96
22114.6
30025.4
24510.8
26280.3
20779.8
20116.9
29197.9
26450.4
25012.7
21202.1
18423.4
33365.2
24110.1
23831.3
21271.3
21195.2
38141.7
2009.04
2429.79
4300.02
9905.29
2915.96
3300.13
6079.58
11229
4346.25
3680.13
8262.5
12885.7
26177.6
25849.8
23637.2
23240.9
20296.4
18579.7
15391.9
13610.4
10874
15120.9
23841.2
23014.2
24058.1
23661.8
20944.1
19622.9
17361.9
15559
11592.7
15273.9
23838.8
26839.9
23771.7
27502.2
23021.3
23833
22473.1
24000.9
21701
22075.5
21523.8
21434.1
23584.7
27618.4
23476.3
27592.2
21815.7
24295.9
21634.9
24239
21784.3
22025.5
21777.9
22011.6
18282.4
17380.7
11792.7
13117.4
18156
16922.2
11613.2
13163.3
18537.3
17330.1
12050
13173
18612.2
17154.9
12425
13182.1
1647.65
1113.98
771.945
964.936
662.165
616.506
2329.58
1393.85
1055.21
1918.86
1542.71
1329.63
2701.16
2249.69
2257.44
3364.95
2754
2474.05
24686.9
22280.1
20595.8
22738.8
21069
19731.8
16329.8
15149.3
14501
11107.6
9627.01
8999.07
5128.83
3782.85
3204.64
22331.4
20660.2
19236.9
22947.1
20894.2
19297.7
17017.1
14608.4
13241.8
11114.4
8887.11
7977.94
5454.92
3764.83
3020.1
27111.9
26526.9
29530.7
26498
30399.9
26506.7
36701.6
27916.5
20836.5
21288.7
20544
19202.1
23545.6
22185.1
23118
19763.8
22916.8
22748.3
21118
22584.5
28125.6
25260.5
27910.8
28338.6
30314.1
31350.7
23244.6
24122.7
20817.3
20206.9
25309.8
25970
16495.5
8889.62
15415.3
9843.55
16715.4
8960.48
15358.1
9771.44
16501
9009.38
15326.2
10183.6
14911.5
10655.8
15095
10570.4
21219.3
18152.5
21101.4
18127
23426.2
21161.4
23663.3
20952.4
20668.7
15148
21557.2
14949.5
21570.3
18040.6
21842.9
17836.5
24272.4
20780.1
24288.4
20513.5
20471.2
15193.4
20414
15100.3
13570.9
9050.77
12004.1
7687.33
12647.8
8110.08
11537.4
7183.3
13905.3
9618
12197.7
7922.06
13924.5
9966.52
12167.4
7979.45
2569.31
1328.49
4702.12
2483.35
2760.79
1660.8
5030.14
3017.15
3406.15
2522.98
5579.22
3982.58
13183.8
20382.6
9508.84
9125.42
6470.6
19967.7
13934
8185.91
8230.49
5322.81
20757.7
16369
13033.8
10153.7
6297.26
698.272
523.313
1382.51
1010.64
1029.65
713.436
2020.05
1603.68
1804.86
1414.23
2979.3
2426.45
20285.7
19668.7
13785.5
13251.9
8984.43
9095.45
7569.58
6997.48
4549.45
3739.46
19022.1
17335.7
14782
13024.3
11535.9
10297.4
8783.91
7983.6
5566.21
5543.92
15136.8
12305.3
15221
11999.6
18156.4
15113
18106
14887.6
12776.4
10421.8
12402.5
10469.3
15219.3
11807
15124.4
11786.9
18030.9
15161.8
17856
15114.6
13002.6
10253.8
12980.3
10390
9968.04
8494.09
6577.33
6983.08
9610.8
8317.96
6273.4
6624.08
10390.5
8658.52
6744.93
7395.07
10639.2
8658.58
7011.48
7502.46
1791.78
1581.12
1311.83
7857.42
4193.75
3426.57
1768.28
1749.39
1556.84
8565.81
5009.39
4252.05
2429.47
2730.04
2802.65
9468.06
6277.39
5599.16
18550.6
17349.8
16476.4
12757.3
12381.1
12134.2
9354.59
9251.23
9247.45
8069.61
7813.08
7625.25
10778.8
7759.2
7020.6
15817.5
14586.4
13749.5
11848.2
11038
10571.7
9911.07
9209.94
8805.19
9582.85
8514.12
7886.4
13107.5
8757.83
7875.5
4899.07
3092.6
2206.99
1855.7
5526.07
3365.56
2330.56
1900.17
4921.39
3087.63
2211.23
1869.8
5648.41
3436.78
2377.56
1923.85
4903.89
3050.89
2213.48
1861.96
5761.3
3478.64
2428.16
1924.44
6208.52
3689
2484.68
2000.08
6397.78
3835.26
2565.52
2076.13
5233.02
3250.32
2301.45
1885.4
4239.6
2828.84
2101.24
1811.39
4573.1
2933.1
2142.33
1754.87
3889.92
2660.56
2015
1738.22
5675.66
3490.11
2414.22
1970.98
4448.72
2952.03
2156.46
1869.22
5925.86
3653.29
2494.71
2033
4540.06
3040.23
2202.76
1902.95
3663.9
2638.81
2004.01
1759.58
2311.87
2091.75
1755.17
1653.48
3672.33
2623.37
1999.32
1755.41
2421.48
2121.25
1765.16
1663.47
3759.74
2618.91
2007.89
1763.55
2753.8
2218.94
1804.13
1704.52
3705.08
2547.64
1967.41
1797.2
3038.51
2286.05
1853.37
1694.16
3421.69
2464.56
1917.17
1711.9
933.546
1646.3
1386.6
418.616
-629.058
1395.95
1234.35
444.116
1177.93
1727.2
1417.91
442.009
-324.623
1487.39
1262.59
453.901
1635.81
1869.43
1466.97
440.564
193.802
1638.81
1303.57
459.161
2195.06
2038.16
1537.96
478.703
743.988
1806.42
1362.34
479.027
2561.53
2191.79
1625.9
558.848
886.583
1932.39
1416.89
496.362
2732.91
2359.47
1665.56
530.782
557.236
2063.56
1517.87
526.768
2665.55
2285.16
1635.34
531.222
520.681
2002.54
1466.88
508.736
2752.23
2412.28
1690.36
494.386
494.405
2116.38
1552.41
530.048
2811.6
2468.38
1736.55
505.385
598.22
2175.15
1594.54
543.307
1685.44
1274.51
870.508
503.072
164.24
1666.6
1271.79
871.085
503.706
164.459
1707.6
1285.42
875.748
505.483
164.94
1693.83
1285.75
878.118
507.026
165.437
1747.64
1300.21
882.269
508.417
165.787
1726.1
1301.56
886.043
510.785
166.551
1752.15
1319.64
896.528
516.061
168.149
1793.43
1345.7
911.488
523.594
170.434
1788.48
1318
891.668
512.998
167.162
1909.37
1339.79
897.835
515.28
167.784
1797.11
1313.41
887.129
510.448
166.358
1906.81
1331.93
892.812
512.695
166.987
1804.92
1333.89
901.061
517.758
168.612
1944.13
1355.21
906.385
519.579
169.096
1845.75
1359.18
915.137
524.788
170.745
1987.5
1377.77
918.575
525.655
170.946
1732.33
1281.04
870.512
502.551
164.042
1821.91
1288.34
870.732
502.25
163.926
1753.3
1289.68
874.417
504.302
164.544
1838.79
1294.87
873.713
503.595
164.313
1793.31
1303.38
880.297
506.931
165.295
1873.07
1306.08
878.786
505.902
164.973
1858.51
1319.11
886.25
509.509
166.026
1914.21
1318.12
884.571
508.573
165.731
1920.36
1327.21
889.629
511.048
166.473
9818.51
15123.2
10344.2
15465.9
11035.6
15828.1
11499.7
16045.9
11023.6
15408.8
10208.3
11501
10220.4
12056.5
10265.8
11401.8
10444.6
11540.3
8732.53
1486.83
317.102
71.076
12.5814
9708.73
2761.4
669.947
151.91
26.878
8825.74
1484.83
314.82
70.3052
12.4107
9802.03
2753.7
665.75
150.254
26.3588
8902.82
1476.48
310.426
69.0293
12.1604
9861.71
2740.97
659.163
148.227
25.9654
8814.93
1430.53
298.082
66.1208
11.6408
9738.89
2681.78
642.615
144.27
25.2469
8353.1
1321.35
274.753
61.1339
10.7876
9217.4
2542.82
611.318
137.638
24.1227
7425.32
1221.27
262.22
59.2997
10.5446
7600.6
2199.83
542.912
124.265
21.9879
7696.59
1245.63
264.301
59.3944
10.527
8062.74
2329.33
569.799
129.381
22.7714
7319.65
1215.48
262.185
59.4328
10.5785
7444.19
2141.71
529.021
121.467
21.5534
7290.53
1205.73
259.87