/*--------------------------------*- C++ -*----------------------------------*\
  =========                 |
  \\      /  F ield         | OpenFOAM: The Open Source CFD Toolbox
   \\    /   O peration     | Website:  https://openfoam.org
    \\  /    A nd           | Version:  11
     \\/     M anipulation  |
\*---------------------------------------------------------------------------*/
FoamFile
{
    format      ascii;
    class       volScalarField;
    location    "2";
    object      gradTx;
}
// * * * * * * * * * * * * * * * * * * * * * * * * * * * * * * * * * * * * * //

dimensions      [0 -1 0 1 0 0 0];

internalField   nonuniform List<scalar> 
5712
(
-6688.47
-8549.07
-15880.2
-23192.7
-23658
-40837
-18181.1
-46319.7
-14808.7
-32539.9
-22146.6
-33689.9
-19872.6
-26060
-8739.32
-9993.21
-14923.2
-17095.5
-19284.6
-19122.4
-15170.9
-18741.3
-22361.4
-20058.5
-5441.74
-4092.21
-6768.09
-4553.39
-12613.5
-10090.9
-21535.8
-15601.3
-16683.5
-17341.6
-18524.8
-17679.2
-6507.87
-5092.23
-39481.2
-52851.9
-25505
-31311.7
-53085.3
-68881.7
-27454.9
-31432
-29275.2
-41352.3
-25547.2
-33859.9
-14957.2
-24102.4
-2873.19
-968.93
-3025.1
-1090.78
-8673.95
-3502.53
-11894.3
-4377.44
-8469.43
-3248.05
-8999.77
-2886.7
-15333.3
-4879.9
-19781.6
-6675.44
-24178.2
-12010
-22135.2
-13117.7
-22658.2
-14654.5
-19929.5
-14978.3
-17415.7
-10346.2
-17418.8
-8882.05
-22839
-14594.8
-22889.6
-14728.2
-21051.9
-15852.1
-21306.3
-15920.7
-18809.1
-11942.9
-19480.6
-12235.3
-17798.6
-7713.53
-8227.36
-10028.6
-17871.1
-8435.04
-7183.56
-10171.2
-18847.1
-7675.05
-9321.52
-10098
-19780.8
-7859.17
-10136.7
-10546.6
-3722.7
-4066.78
-1251.66
-2454.1
-10895.1
-11518.6
-4214.54
-7490.83
-13953.7
-15498.8
-6743.62
-11476.4
-12293.4
-1040.11
-13643
-16861.9
-9174.89
-698.704
-7430.51
-12280.8
-19808.3
-13811.3
-9958.68
-12111.5
-10609.1
-9169.52
-14392.7
-3571.31
-2940.06
-2042.41
-2024.69
-10061.6
-8472.03
-6072.47
-5772.5
-12555.6
-10603.2
-7930.72
-7108.54
-5841.77
-7445.83
-12077.7
-12526.6
-14122.2
-12844.2
-15925.4
-13847.8
-10813.8
-9102.19
-9090.6
-9552.19
-12009.3
-9448.28
-10959.3
-7949.1
-9498.44
-6525.64
-11094.8
-7262.44
-10276.3
-4761.42
-8832.37
-9551.06
-12602.4
-16413.7
-13867.9
-20172.8
-7035.72
-7794.28
-9108.15
-2868.55
-7874.38
-15159.1
-7472.55
-16260.6
-13732.1
-24907.7
-13972.6
-26443.4
-5962.09
-13038.4
-5421.86
-13902.7
-8244.48
-6214.66
-11483.1
-4534.55
-8471.37
-1638
-10004.3
-722.167
-7926.26
-9332.8
-12032.1
-5554.67
-6560.5
-11010.7
-10651.3
-7291.75
-2334.65
-2055.79
-1834.38
-1677.63
-1537.73
-1373
-6908.28
-5656.92
-4888.14
-4444.42
-3566.94
-3088.79
-8451.05
-7273.37
-6711.56
-5347.08
-4349.9
-4104.86
-6533.14
-5763.49
-5615.81
-10916.7
-8273.19
-6955.62
-10308.1
-7593.94
-6145.63
-10816.2
-8515.48
-7394
-6752.45
-4437.54
-3454.04
-15706.7
-13554.1
-11710.8
-10114.5
-8393.15
-6947.62
-9007.32
-6977.21
-5547.59
-7582.75
-5457.27
-4173.15
-7829.93
-4349.25
-2440.11
-10403.8
-14085.9
-8234.19
-10632.7
-11219.9
-16474
-10028.7
-14589.7
-33.3811
-723.543
512.021
-99.3062
-2958.84
-3341.9
-1224.6
-654.561
-682.257
-2390.97
-9406.73
-13728.3
-6651.45
-3663.13
-9927.32
-9855.51
-15321.9
-16878.9
616.671
4157.25
-7575.76
-7141.62
-7201.82
-5554.93
-1020.83
-541.158
-665.565
-269.427
-1969.67
-184.434
365.33
867.073
-9227
-2374.58
-6246.61
-1616.71
-9050.05
-2755.33
-10959.3
-3524.68
-8832.88
-11927.8
-8168.06
-11633.2
-14228.6
-15052.4
-13579.7
-14252.7
-5632.77
-9399.83
-6504.84
-9338.82
-8669.26
-11206.4
-9565.29
-11321.9
-14149.9
-13998.2
-14816.8
-14056.5
-5687.49
-9096.42
-6191.28
-9265.08
164.766
-1320.69
-7394.15
-4620.83
730.009
-906.644
-6850.05
-4081.74
-296.316
-1582.12
-7561.51
-5038.38
-751.553
-1854.97
-7602.04
-5218.08
703.559
809.789
-162.26
-9.18365
2952.87
2987.11
232.919
400.508
636.936
2029.07
-1654.71
-993.159
10272.8
9599.65
5594.91
4308.05
467.794
10517.6
10807.8
4333.58
6413.49
868.562
-10273.1
-8045.81
-7136.72
-6694.3
-4056.48
819.894
756.948
42.6989
-56.9146
2593.67
2538.13
131.788
-108.637
2614.88
3149.39
-660.353
-973.356
5135.66
2315.23
8161.17
5102.97
3660.04
2772.31
4140.43
3587.57
-407.106
-1338.28
-3775.08
-2381.3
-1032.42
1023.32
-986.47
773.978
-1682.93
-349.455
-2067.7
-2360.75
-5214.8
-4764.58
-9929.02
-5985.31
-8123.26
-8171.32
-12332.9
-9987.53
-7818.89
-4594.05
-3891.84
-3863.39
-11709.2
-5162.93
-12881.4
-5790.86
-13756.7
-10193.2
-14681.8
-10929.6
-9492.92
-3736.39
-10637.2
-4334.27
-6161.07
-4878.07
-4743.95
-7030.88
-3977.87
-4481.07
-4051.93
-6518.91
-7115.67
-4819.88
-5362.82
-8074.19
-8658.11
-5238.97
-6731.65
-8337.61
767.257
817.33
917.966
28.0122
286.674
321.428
2793.55
2957.66
2952.91
227.073
821.116
823.915
3538.34
3934.87
4032.63
-563.245
799.826
1079.84
1232.72
1050.49
748.021
3739.03
3814.42
3553.44
3061.3
3449.87
3389.84
3790.37
4061.95
3958.97
-1303.15
359.403
483.796
-3463.65
-1975.48
-1050.8
997.241
2105.2
2696.63
968.381
2382.46
2998.34
437.732
1967.53
2407.48
-2261.47
503.009
830.276
29.6576
39.4607
49.6253
74.6888
267.179
150.281
124.712
119.963
14.8291
77.5655
178.272
273.004
436.082
276.747
310.912
330.678
-214.052
31.311
255.721
488.497
166.352
226.24
288.331
325.619
40.1132
135.728
136.879
133.528
-209.256
-6.27496
116.985
196.85
-926.267
-190.039
90.2668
290.291
-1449.83
-337.164
-4.44461
502.709
-638.616
-77.4225
173.331
433.867
-1189.15
-255.428
-22.7777
437.848
-989.781
-228.493
118.354
370.961
-1628.03
-402.078
-7.09303
592.348
-1107.44
-303.781
109.62
443.903
-1755.95
-461.06
-28.2105
619.314
10.825
23.4347
43.5791
94.2754
40.154
32.2257
25.6471
86.0749
76.7809
80.062
136.339
255.93
170.857
108.86
80.6661
233.285
-388.805
-46.168
147.476
435.501
-169.238
31.6662
105.42
411.549
-66.3653
120.96
221.047
437.033
-8.11034
97.6869
89.2368
415.035
-1019.33
-194.041
16.4351
578.065
86.1536
45.0487
32.1319
65.8388
161.743
65.5909
34.2651
30.927
177.656
107.25
69.6675
168.711
413.126
174.442
85.8659
79.2405
108.529
119.79
96.3423
277.301
523.507
245.48
129.589
124.862
-82.8769
109.719
121.585
386.14
413.753
265.651
153.956
158.559
-525.518
16.7482
57.5694
367.855
125.983
229.333
140.828
161.647
-1184.02
-118.152
42.4289
424.004
-377.528
57.7452
87.922
149.204
-910.93
-32.1515
53.3977
394.577
-218.921
134.616
118.722
162.383
-1435.36
-223.459
8.40232
460.551
-519.766
-17.638
56.7777
139.36
-1624.36
-327.67
-38.9819
454.244
-650.427
-98.8363
15.752
120.284
32.8639
14.3016
7.22664
4.15334
2.9482
43.2257
21.8955
11.862
7.01712
5.02403
78.5315
33.2911
16.7763
9.69256
6.93552
97.792
49.0669
26.6374
15.8494
11.3932
104.211
41.7181
20.7593
11.9841
8.60137
131.498
65.1271
35.4645
21.235
15.3289
68.8275
33.3312
18.0815
10.8517
7.84133
49.0333
19.6047
9.71435
5.65721
4.04518
104.421
42.675
21.6806
12.6898
9.08566
49.8741
17.4816
8.35305
4.77779
3.39201
110.069
49.5754
26.3683
15.6819
11.3025
47.1297
17.3911
8.56891
4.94334
3.5063
80.4663
27.927
13.127
7.48514
5.32302
47.3008
15.6275
7.32164
4.18785
2.98174
70.255
18.0909
6.83245
3.54233
2.4219
38.8337
8.5672
2.9476
1.46389
0.980998
27.4452
10.8048
5.25016
2.94993
2.07301
19.8334
8.55967
4.34982
2.47924
1.74862
67.0571
27.0932
13.5056
7.70294
5.46515
51.2153
22.5198
11.6456
6.7023
4.74651
94.1086
33.4375
15.9711
8.97191
6.34449
69.4726
30.9936
16.213
9.36775
6.68267
84.5259
38.0931
20.3525
12.0403
8.68254
47.199
23.562
12.7631
7.47502
5.38956
43.7736
20.9349
11.4592
6.86059
4.9519
-317.599
-447.42
-700.968
-1090.48
-698.017
-1354.93
-147.968
-1075.14
510.416
-116.328
-690.955
-1196.28
289.545
206.972
-1132.35
-1810.61
-1451.04
-2079.2
-635.474
-147.882
-33.3543
-7.37531
-1.852
-209.241
-95.1886
-13.4236
-3.56711
-1.55823
-1951.61
-452.024
-102.301
-22.5084
-5.65947
-498.22
-134.837
-32.8291
-6.9119
-1.86453
-3276.58
-760.427
-172.549
-38.0882
-9.5557
-792.072
-228.713
-55.5074
-12.8787
-3.23707
-4391.17
-1022.04
-232.85
-51.5533
-12.9489
-919.079
-287.169
-71.9504
-16.8832
-4.23424
-5477.39
-1287.41
-295.332
-65.7137
-16.5742
-1011.66
-348.205
-89.8379
-21.3578
-5.41939
-6473.37
-1568.2
-364.721
-81.8402
-20.7344
-1577.2
-484.829
-120.01
-27.6124
-6.92644
-6033.43
-1456.62
-337.295
-75.3728
-19.0355
-1219.86
-410.064
-104.691
-24.5784
-6.17437
-6672.26
-1618.65
-377.156
-84.7628
-21.5076
-1790.47
-532.144
-129.745
-29.432
-7.36316
-6950.94
-1671.92
-390.094
-87.6286
-22.2215
-1858.78
-554.076
-136.285
-28.7258
-7.60292
-509.543
-6991.02
-6379.22
-2275.75
1657.72
2820.95
7856.32
11483.2
1779.25
8437.71
-1649.43
2599.91
2511.9
4969.3
9394.04
13296.8
14203.7
17830.9
5800.29
7512.11
-19883.1
-14362.3
-4705.3
-3664.16
-2630.89
-3752.21
-3511
-12212.6
-11632.1
-9946.94
-10728
-8831.41
-6336.69
-8278.34
-5466.53
-4630.98
-5620.7
-3859.4
-19793.8
-10270.6
-3612.94
-6169.38
-8400.89
-5856.95
-6378.63
-4741.16
-2873.5
-4061.75
-4327.01
-4680.95
-19550.7
-12810.3
-12167.1
-8783.08
-8711.32
-9165.18
-3913.08
-5153.67
-6565.32
-14143.7
-12217
-10246
-9447.56
-8094.88
-9319.72
-6378.06
-4941.39
-3782.92
-1940.48
-4148.73
-3434.44
-2568.78
-1597.78
-545.923
-3269.39
-2733.78
-2054.3
-1275
-432.752
-2334.49
-1938.35
-1445.42
-891.137
-301.215
-3352.64
-2805.06
-2106.06
-1304.32
-441.699
-3112.84
-2584.8
-1930.45
-1193.42
-404.435
-7831.13
-5981.89
-4679.56
-4329.38
-4660.7
-6341.98
-4652.37
-3308.94
-2743.69
-1915.63
-6206.6
-3726.84
-2578.31
-1792.46
-858.677
-5504.42
-3701.01
-2457.65
-1786.29
-1052.7
-4121.89
-2570
-1598.17
-1105.49
-541.048
-5008.84
-3734.51
-2574.44
-1535.86
-527.732
-5631.7
-3616.06
-2361.45
-1412.05
-527.25
-3587.89
-2145.67
-1286.04
-696.508
-234.953
-3811.34
-2936.89
-2064.01
-1232.66
-415.43
-4481.9
-3341.1
-2274.68
-1323.52
-439.232
-3210.71
-2494.81
-1758.72
-1046.51
-349.459
-13067.4
-9938.41
-8010.33
-7105.83
-6742.92
-7551.56
-5463.03
-3989.35
-2701.71
-1212.44
-3002.43
-2345.03
-1676.37
-1020.58
-351.284
-5216.83
-4159.43
-3039.16
-1888.17
-661.556
-6872.64
-5383.9
-3952.64
-2537.37
-958.609
-4975.6
-3999.51
-2956.47
-1861.18
-659.358
-5511.97
-4492.23
-3341.12
-2094.19
-730.003
-4119.17
-3360.68
-2486.8
-1540.68
-527.983
-2474.76
-1990.94
-1445.05
-876.056
-294.495
-3571.79
-2939.17
-2177.12
-1338.45
-452.64
-3675.99
-2923.95
-2110.73
-1282.58
-434.98
-4047.8
-3282.53
-2412.37
-1485.09
-506.806
-13570.2
-11218.7
-9347.52
-8304.91
-7208.88
-8881.98
-6350.75
-4879.22
-3607.92
-1833.49
-8958.81
-7082.03
-5379.4
-3964.97
-1921.84
-6895.89
-5221.78
-3920.23
-2661.1
-1082.47
-7253.49
-5787.37
-4312.06
-2791.42
-1047.05
-7138.93
-5364.2
-4001.2
-2703.83
-1086.45
-3352.98
-2705.46
-1993.13
-1240.93
-431.357
-4535.59
-3740.98
-2783.09
-1720.52
-584.582
-5640.43
-4565.93
-3375.47
-2106.76
-732.211
-5633.88
-11474.9
-11951
-32744.7
-11772.5
-43806.1
-6424.76
-15590.7
-11784.5
-9092.41
-19587.1
-16321.7
-11743.6
-11032.7
-21962.6
-17366.6
-4148.21
-3083.07
-8030.23
-5520.99
-9295.39
-7005.74
-24946.9
-18440.6
-15315
-11615.3
-15743.6
-9355.69
-1200.17
-3788.96
-40776.1
-53379.4
-24645.6
-31162.5
-53871.9
-69201.7
-26510.7
-31203.9
-30393.6
-41927.4
-24763
-33800.2
-16445.6
-24807.6
-1983.05
-523.263
-3483.65
-1188.77
-6745.73
-3013.64
-13684.8
-4942.74
-2965.49
-1684.16
-7420.47
-2333.65
-15351.8
-4824.23
-19959.1
-6724.34
-16608.6
-8606.85
-19156
-11377.1
-15107.8
-10808.3
-16976.2
-13137.1
-15316.8
-8960.59
-12115.2
-6262.42
-21686.4
-13810.5
-22601.1
-14513.5
-19875.8
-15051.9
-20991.8
-15702.9
-18035
-11302
-19297.1
-12058.2
-16785.6
-7418.61
-7313.79
-9663.67
-15017.9
-7585.68
-5484.81
-9504.29
-18573.4
-7599
-8895.18
-9918.73
-19747.5
-7852.16
-10016.3
-10494.4
-1140.58
-1027.75
-277.259
-1225.07
-4634.16
-4797.27
-2904.93
-5773.54
-2604.84
-3246.67
-4518.98
-8546.45
-12141.4
-9691.18
-9435.34
-11801
-7802.83
-7624.64
-8182.62
-6958.65
-13670
-11932
-11605.5
-9757.17
-6807.38
-5861.24
-12866.7
-1109.76
-832.013
-621.451
-697.099
-4310.15
-3419.8
-3657.13
-3223.15
-634.586
507.802
-4324.59
-3397.26
-10169.2
-10797.1
-9515.12
-8711.01
-7126.91
-5176.19
-9343.62
-7436.4
-8410.62
-6587.68
-11601.2
-11779.3
-9947.4
-7744.1
-7383.16
-4985.11
-6529.59
-4111.76
-9790
-5942.83
-9335.38
-5050.54
-8331.56
-9471.53
-13092.2
-17393.4
-13811.8
-20161.6
-6402.72
-7583.87
-7760.07
-2851.21
-7685.85
-15028.3
-7426.36
-16208.9
-13655.3
-25015.4
-13944
-26426.7
-5718.77
-12877
-5362.59
-13851.8
-7780.35
-6094.75
-11294.4
-4553.94
-7476.63
-1768.56
-9714.85
-1201.6
-7739.26
-9234.68
-11945.4
-5545.19
-6510.34
-10977.4
-10627.1
-7280.7
-818.133
-759.861
-559.163
-645.681
-2607.08
-1907.33
-2367.74
-2154.94
1074.55
576.732
-2772.96
-3074.53
-10677.9
-10116.1
-7722.41
-6650.42
-4117.26
-3460.56
-5835.01
-4808.9
-5540.64
-4041.61
-18310.5
-15997.5
-8012.59
-6792.18
-6110.24
-4624.66
-5071.55
-3236.86
-5430.86
-2341.39
-5610.93
-9233.98
-4913.64
-9366.55
-8377.31
-10452.7
-9415.19
-12819.8
-987.945
-712.857
-763.728
-647.22
-3633.23
-2582.79
-2968.9
-1653.12
-1366.75
-1645.99
-8337.46
-8947.79
-4680.04
-4226.96
-9380.7
-9726.4
-14467.8
-16638.4
387.61
3971.75
-7364.78
-7149.94
-7092.76
-5597.29
-1064.13
-959.722
-1158.64
-953.165
-1710.91
-1144.9
-578.364
-482.588
-8118.22
-3731.32
-6901.02
-3126.68
-9318.99
-3659.22
-11075.4
-3893.79
-5378.91
-10256.4
-6994.62
-10741.3
-8701.12
-11709.7
-11445.3
-12696.9
-5210.03
-9192.43
-4707.66
-9153.96
-8187.98
-10837.6
-9423.2
-11224.1
-13250.8
-13346
-14560.1
-13879.9
-5585.2
-9035.39
-6173.59
-9257.54
-425.608
-2138.2
-7809.66
-5270.71
-404.503
-2213.66
-7738.96
-5047.23
-737.292
-2157.37
-7791.87
-5436.08
-933.448
-2086.67
-7670.88
-5354.95
-1064.11
-1164.19
-995.243
-1072.2
-2061.79
-2102.53
-1396.38
-1507.04
-8347.61
-7657.41
-3844.31
-3857.5
-3703.88
-5188.46
-4002.05
-219.36
-1749.04
-1275.34
-1375.49
-3591.65
2709.72
-792.461
-13843.2
-11726.2
-10563.4
-9155.45
-5664.8
-1168.33
-1049.21
-1206.51
-1494.8
-2077.65
-1626.78
-1935.1
-2570.85
-7988.08
-7856.89
-4273.56
-5515.64
-5025.3
-6698.1
-3138.73
-5066.21
-4804.05
-5236.86
-1091.22
-1466.82
-2805.96
-4205.52
-9671.6
-7932.98
-7597.39
-5570.35
-6603.21
-4705.46
-5824.23
-4221.09
-4224.52
-4633.44
-8302.16
-8190.36
-11199
-7217.07
-10417.6
-11167.8
-13054.8
-10979.9
-9354.26
-5786.05
-6869.9
-6848.54
-12205.6
-5928.8
-13009.2
-5976.29
-13950.4
-10835.8
-14718.8
-11066.8
-10198.3
-4483.56
-10835.6
-4532.65
-7620.36
-5956.27
-6033.33
-8240.75
-6505.37
-6883.4
-5922.08
-8499.56
-7877.19
-5524.24
-6094.22
-8844.44
-8895.82
-5459.93
-6968.18
-8557.45
-840.692
-725.771
-1078.39
-796.829
-1393.39
-1664.26
-1576.1
-1165.33
-7661.52
-6709.14
-3676.1
-1642.95
-7862.59
-7454.17
-6099.59
-5482.42
-5071.19
-4353.48
-1807.57
-1873.23
-4003.76
-1819.1
-8632.19
-7393.91
-4867.6
-3875.92
-3759.61
-2401.73
-2746.66
-1235.18
-4162.62
-99.8482
-227.282
-103.885
-35.9048
22.0263
-212.028
-131.727
-44.7045
14.4677
-614.716
-271.073
-8.81694
168.558
-552.06
-317.187
-36.7541
114.232
-1008.24
-402.464
32.3761
386.273
-991.513
-483.193
-161.025
18.9085
-683.698
-325.94
-159.967
-51.1778
-526.382
-215.435
-18.371
109.976
-1510.32
-529.131
-129.402
131.946
-1794.04
-511.098
-100.966
482.501
-1448.06
-507.655
-84.508
257.171
-1628.62
-459.762
-128.72
437.002
-1413.18
-487.851
-41.5553
278.248
-1859.64
-526.851
-83.7573
562.55
-1281.02
-413.848
40.6184
402.732
-1840.58
-508.655
-57.882
607.977
-211.227
-85.4306
-13.1325
68.6189
-181.721
-65.0423
-27.7463
65.0745
-544.861
-223.194
-19.1454
179.055
-457.118
-171.277
-72.2707
168.762
-1077.58
-374.598
-10.4675
383.485
-979.071
-325.88
-85.0338
348.83
-1197.52
-441.38
-81.4375
286.033
-904.202
-308.188
-113.369
388.703
-1640.41
-459.076
-113.229
612.003
-131.469
-48.736
-14.8299
42.9176
-61.0332
-34.0004
-15.0749
0.286566
-395.923
-140.961
-62.2947
101.485
-201.204
-101.697
-54.3208
-7.30851
-702.905
-234.679
-95.0032
182.847
-408.046
-178.254
-84.9719
-6.03047
-1068.99
-338.06
-119.827
277.723
-712.452
-262.715
-112.934
-1.07879
-1407.57
-406.136
-190.269
234.058
-959.34
-317.303
-150.582
-20.714
-1880.31
-526.276
-203.813
291.177
-949.274
-294.959
-124.187
11.377
-1812.52
-516.204
-231.889
240.911
-1050.54
-328.534
-145.136
-9.7537
-1856.22
-483.201
-151.484
376.691
-850.597
-238.143
-77.6547
55.7696
-1762.25
-415.328
-93.5812
425.521
-753.867
-170.493
-28.4643
93.0054
-5.19251
-9.28932
-6.64889
-4.37123
-3.25912
-24.8616
-18.3202
-11.4986
-7.29095
-5.38819
-9.82985
-21.1828
-15.194
-9.93673
-7.35554
-53.9012
-40.5904
-25.4801
-16.0872
-11.8546
-4.23249
-25.4547
-18.6377
-12.2015
-9.00789
-70.5862
-53.4096
-33.2988
-20.8859
-15.3331
-34.3808
-26.7832
-16.7578
-10.4888
-7.69508
-3.88783
-11.2885
-8.22304
-5.34831
-3.98331
-14.8698
-27.7758
-19.2565
-12.3948
-9.17611
5.30483
-9.23874
-7.21393
-4.76453
-3.55499
-41.9986
-38.5681
-24.5227
-15.4441
-11.3454
-0.389718
-10.719
-7.7415
-5.04276
-3.76089
11.7689
-13.0919
-10.7886
-7.18672
-5.36542
8.48461
-7.37552
-6.04556
-4.0056
-2.98793
38.8175
-0.765981
-4.21135
-3.26686
-2.57364
25.8263
0.708359
-1.66107
-1.38203
-1.11324
0.342822
-6.50123
-4.95323
-3.31775
-2.48989
-5.37863
-6.46603
-4.35107
-2.83933
-2.11846
-7.00613
-18.465
-13.0793
-8.58246
-6.38247
-19.1494
-18.4559
-11.9353
-7.68861
-5.71289
9.80292
-19.8524
-15.2568
-10.1794
-7.59329
-32.1166
-27.0575
-17.0558
-10.9211
-8.06205
-38.8528
-32.1931
-19.9755
-12.5768
-9.21731
-36.5852
-22.8042
-13.6421
-8.60794
-6.29571
-27.6308
-18.6933
-11.1768
-6.94594
-5.08675
-55.4477
-202.011
-91.6949
-513.865
-21.3771
-706.088
282.567
-628.321
560.114
-64.6649
-757.602
-1262.07
150.923
-27.8129
-1164.53
-1831.94
-1459.83
-2083.73
-605.675
-143.365
-32.508
-7.20315
-1.81017
-160.075
-88.0118
-12.2874
-3.38575
-1.51816
-1871.55
-439.272
-99.8551
-22.0066
-5.53673
-383.928
-117.396
-30.1425
-6.50618
-1.79303
-3154.28
-739.846
-168.535
-37.2625
-9.35482
-665.148
-208.47
-52.2604
-12.3512
-3.13998
-4251.06
-996.533
-227.722
-50.4884
-12.6906
-836.568
-272.228
-69.3037
-16.4114
-4.14186
-5353.15
-1261.42
-289.763
-64.5244
-16.2827
-999.902
-342.126
-88.3072
-21.0237
-5.34518
-6418.89
-1553.16
-361.027
-80.9934
-20.5186
-1588.03
-485.375
-119.847
-27.5381
-6.90303
-5952.57
-1435.39
-332.325
-74.2701
-18.7614
-1242.13
-409.84
-104.129
-24.4043
-6.12998
-6640.83
-1609.82
-374.926
-84.2411
-21.3725
-1793.17
-532.126
-129.636
-29.3943
-7.35183
-6940.55
-1669.01
-389.346
-87.4513
-22.1754
-1858.89
-553.948
-136.233
-28.7161
-7.59956
-518.105
-6907.91
-6104.4
-2205.38
-1574.2
-928.703
-3698.94
-2683.57
-6448.57
-6027.85
-3073.18
-2313.37
-376.802
-578.51
-994.759
-1617.51
-2426.29
-3346.55
-272.46
-586.623
-1221.5
-2129
-3209.53
-4311.27
-286.274
-131.94
-492.631
-336.865
-908.726
-753.755
-1518.86
-1409.57
-2185.52
-2100.8
-2866.11
-2586.69
-4148.72
-4687.69
-5100.71
-7605.27
-8524.94
-9398.78
-5231.68
-5754.64
-5727.25
-5228.11
-4480.28
-3920.9
-340.348
-288.272
-218.898
-136.634
-46.437
-522.181
-441.927
-335.31
-209.173
-71.0679
-897.179
-758.589
-575.077
-358.525
-121.776
-1457.15
-1230.5
-931.771
-580.469
-197.097
-2181.86
-1838.99
-1390.37
-865.383
-293.75
-3000.5
-2521.48
-1902.17
-1182.8
-401.486
-245.965
-208.226
-158.038
-98.6058
-33.5023
-529.211
-447.61
-339.432
-211.656
-71.895
-1101.11
-930.507
-705.074
-439.437
-149.238
-1916.88
-1617.82
-1224.56
-762.724
-258.972
-2884.49
-2429.9
-1836.55
-1143.07
-388.052
-3863.96
-3246.25
-2448.99
-1523.26
-517.213
-258.698
-219.183
-166.484
-103.945
-35.3377
-119.237
-101.03
-76.7419
-47.9152
-16.2899
-444.864
-376.649
-285.89
-178.397
-60.6262
-304.25
-257.648
-195.6
-122.071
-41.4862
-820.005
-693.7
-526.131
-328.115
-111.469
-680.312
-575.672
-436.711
-272.387
-92.5406
-1369.01
-1156.69
-876.25
-546.003
-185.41
-1270.68
-1073.73
-813.437
-506.844
-172.102
-1966.41
-1658.19
-1253.98
-780.473
-264.891
-1890.27
-1593.88
-1205.05
-749.75
-254.391
-2570.38
-2160.01
-1628.82
-1012.14
-343.351
-2319.61
-1948.45
-1468
-911.178
-308.833
-3701.19
-3096
-2329.02
-1447.71
-491.997
-4145.05
-3441.79
-2580.58
-1607.01
-548.917
-4436.55
-3639.68
-2720.52
-1707.66
-592.991
-6405.66
-5156.15
-3859.64
-2487.17
-911.043
-6782.25
-5309.62
-4006.61
-2716.58
-1116.24
-7156.82
-5497.59
-4176.83
-2941.08
-1308.28
-4669.55
-3908.36
-2942.07
-1829.75
-621.948
-5104.36
-4250.09
-3191.94
-1987.6
-677.757
-5030.33
-4157.53
-3115.88
-1948.35
-669.77
-4513.97
-3688.78
-2761.89
-1746.5
-613.167
-3739.75
-2996.81
-2247.94
-1460.34
-541.181
-3153.48
-2475.36
-1862.42
-1247.53
-490.596
-396.29
-638.675
-1100.51
-1775.9
-2647.09
-3620.36
-299.537
-670.288
-1366.84
-2338.54
-3473.14
-4594.38
-304.831
-147.623
-550.315
-386.906
-1011.99
-847.343
-1678.45
-1561.06
-2422.02
-2368.4
-3176.74
-2995.26
-4438.23
-4961.23
-5354.97
-7765.07
-8597.56
-9421.39
-5478.08
-5908.53
-5765.24
-5168.59
-4387.58
-3877.82
-358.057
-303.384
-230.463
-143.899
-48.9148
-576.897
-488.656
-371.104
-231.675
-78.747
-993.474
-840.973
-638.302
-398.334
-135.372
-1601.74
-1354.58
-1027.31
-640.787
-217.729
-2384.17
-2013.4
-1525.28
-950.884
-323.061
-3253.05
-2740.92
-2073.29
-1291.97
-439.056
-270.577
-229.222
-174.101
-108.694
-36.9439
-605.274
-512.553
-389.163
-242.913
-82.5595
-1233.44
-1043.72
-791.955
-494.139
-167.92
-2108.16
-1781.99
-1350.97
-842.533
-286.272
-3126.07
-2638.23
-1997.76
-1245.27
-423.094
-4125.1
-3473.18
-2626
-1636.23
-556.096
-275.538
-233.54
-177.461
-110.836
-37.6868
-133.467
-113.151
-86.0019
-53.7244
-18.2704
-497.286
-421.382
-320.126
-199.906
-67.9636
-349.696
-296.4
-225.234
-140.675
-47.8304
-913.989
-774.051
-587.749
-366.89
-124.707
-765.466
-648.454
-492.508
-307.489
-104.523
-1514.68
-1281.68
-972.46
-606.732
-206.18
-1409.11
-1192.66
-905.119
-564.779
-191.928
-2183.04
-1844.86
-1398.3
-871.894
-296.223
-2135.5
-1805.3
-1368.61
-853.415
-289.93
-2856.83
-2408.86
-1822.82
-1135.84
-385.897
-2695.6
-2274.28
-1721.37
-1072.43
-364.23
-3971.39
-3333.97
-2517.12
-1569.08
-534.05
-4405.77
-3676.68
-2770.41
-1731.77
-592.682
-4687.37
-3873.32
-2915.33
-1839.21
-640.155
-6586.94
-5344.03
-4031.34
-2613.12
-960.083
-6886.91
-5429.34
-4125.37
-2812.18
-1158.74
-7195.22
-5543.19
-4223.67
-2980.54
-1326.81
-4899.62
-4111.14
-3102.52
-1933.38
-657.873
-5252.58
-4385.21
-3302.42
-2060.89
-703.604
-5074.84
-4205.54
-3160.89
-1981.37
-682.184
-4470.7
-3662.17
-2750.18
-1744.57
-614.117
-3664.96
-2941.01
-2212.24
-1443.04
-537.313
-3118.24
-2448.32
-1844.48
-1238.48
-488.482
-19824.6
-14419
-5087.47
-4073.48
-3107.65
-4345.83
-4005.92
-13007.5
-14610.1
-11551.4
-13329.1
-7884.29
-11268.8
-6023.83
-6291.09
-4589.73
-20496
-11299.2
-4339.38
-7099.31
-9275.55
-6376.96
-7048.59
-5335.23
-3282.61
-4741.59
-5278.59
-5410.79
-19441.6
-13011.3
-12831.9
-9183.37
-9167.22
-9708.13
-4599.5
-5808.65
-7215.7
-14160.9
-12294
-10362.6
-9605.61
-8243.27
-9414.52
-6476.2
-5036.53
-3862.32
-1975.15
-4515.03
-3766.27
-2838.16
-1775.38
-608.342
-3650.52
-3068.55
-2318.15
-1444.75
-491.448
-2782.19
-2335.24
-1760.92
-1095.41
-372.09
-3903.38
-3286.85
-2484.27
-1546.86
-525.386
-3579.64
-3000.41
-2262.03
-1408.65
-479.217
-9536.9
-7947.61
-6560.72
-5908.44
-5811.35
-10887
-9401.12
-7613.45
-6070.18
-3579.99
-8326.7
-5857.92
-4414.74
-3074.34
-1328.65
-9910.55
-8191.49
-6422.22
-4705.34
-2263.74
-6667.8
-5348.6
-3946.84
-2465.49
-858.641
-8843.25
-6595.84
-4818.07
-3057.17
-1117
-5219.07
-4259.35
-3162.36
-1966.55
-675.075
-5429.41
-4417.27
-3274.15
-2036.21
-699.847
-4011.15
-3294.74
-2451.77
-1521.36
-519.316
-14437.6
-11564.2
-9624.27
-8496.98
-7726.09
-8789.01
-6735.33
-5120.82
-3514.16
-1536.98
-3750.94
-3061.34
-2280.66
-1428.8
-496.798
-6158.88
-5052.94
-3790.59
-2396.66
-844.053
-7820.95
-6325.99
-4774.35
-3113.44
-1175.56
-5511.65
-4516.24
-3397.97
-2164.61
-769.926
-6167.72
-5097.83
-3841.33
-2429.06
-849.362
-4700.91
-3898.08
-2929.83
-1835.85
-632.37
-2900.73
-2405.64
-1800.28
-1118.09
-380.79
-4222.87
-3528.19
-2653.95
-1651.45
-562.113
-4624.07
-3809.74
-2845.28
-1772.86
-608.226
-4766.28
-3948.77
-2962.64
-1851.73
-636.348
-13710.8
-11513.6
-9738.92
-8752.48
-7657.66
-9175.12
-6656.85
-5170.44
-3842.06
-1939.31
-9893.92
-8073.55
-6315.41
-4695.76
-2254.53
-7360.09
-5701.08
-4355.33
-2982.25
-1207.59
-7758.57
-6300.83
-4770.97
-3121.2
-1174.15
-7777.92
-6013.21
-4589.53
-3135.29
-1257.36
-4022.24
-3320.56
-2498.06
-1576.67
-550.261
-5162.46
-4307.72
-3241.75
-2021.64
-689.954
-6295.08
-5185.57
-3897.06
-2460.36
-859.071
-476.631
-1359.82
-2167.52
-2934.16
-3664.67
-4348.31
-2652.61
-7123.52
-6759.59
-2593.42
-9050.23
-7590.1
-9036.9
-9997.03
-2406.86
-1553.74
-5590.85
-3228.94
-10621.4
-7537.88
241.753
-2150.85
-5933.98
-5550.72
-2087.06
-7694.9
-6184.52
-7573.26
-8518.41
-1992.28
-915.562
-4803.94
-1681.8
-8793.64
-4507.85
1578.91
-1569.63
-4508.01
-4202.58
-1527.25
-6072.69
-3706.22
-6134.38
-6783.61
-1501.45
-833.884
-3399.89
-1750.72
-7010.6
-1783.52
1718.42
-1154.09
-3484.33
-3313.98
-1163.74
-4640.4
-2248.26
-5087.92
-5976.21
-1128.59
-876.758
-2486.99
-1771.08
-6161.61
-356.451
1292.27
-931.322
-2951.18
-2851.55
-979.956
-3723.02
-1861.06
-4557.85
-5794.87
-892.154
-955.856
-1786.05
-1702.58
-5371.76
-141.672
146.826
-821.762
-2630.85
-2616.57
-886.883
-3444.82
-2124.68
-4218.77
-5538.65
-688.075
-750.088
-1473.1
-1666.15
-5285.41
-954.242
-474.695
-1392.2
-3402.98
-4983.14
-1927.68
-5511.94
-9638.26
-7301.84
-10518.6
-1010.72
-713.856
-3890.58
-2400.46
-1162.49
-9233.2
-4828.5
-1296.75
-3176.6
-4383.33
-1676.88
-5102.24
-8725.99
-6598.87
-8969.37
-1034.95
-632.622
-4032.97
-2274.39
-342.702
-9074.75
-3639.29
-1143.2
-2810.05
-3599.81
-1350.51
-4656.98
-7825.26
-5628.85
-7911.09
-921.444
-727.032
-3460.1
-2373.11
-562.816
-7355.56
-3485.87
-992.22
-2541.58
-2997.08
-1100.6
-4358.91
-7128.95
-5025.2
-7203.49
-848.957
-735.56
-3211.46
-2472.05
-370.254
-6840.94
-3520.55
-899.676
-2293.06
-2668.51
-965.479
-3969.43
-6560.44
-4595.66
-6858.95
-797.66
-792.064
-2928.3
-2678.26
-515.998
-6580.35
-3593.77
-837.321
-2051.54
-2478.7
-889.954
-3670.84
-6482.18
-4275.66
-6640.07
-829.67
-918.77
-2614.9
-2551.48
-770.242
-6737.05
-3980.34
6081.77
7679.28
15916.5
23269.6
23689.1
40822.3
18189.7
46322.7
14821.8
32545.8
22191.8
33692.3
19887.4
26142.4
7513.94
8521.21
14935.9
17098.4
19279.7
19120
15172.5
18739.1
22358.7
20055.5
5018.65
3809.09
6158.13
4157.41
12615.2
10063.2
21585.6
15623.9
16660.3
17346.2
18516.9
17680.1
6506.53
5071.15
39486.7
52858.8
25505.7
31313.7
53092
68889.6
27454.7
31433
29279.3
41358.3
25546.7
33862.7
14962.9
24107.8
2710.94
929.562
2780.78
1014
8645.25
3488.94
11899.1
4378.48
8464.11
3244.88
8987.21
2881.82
15334.2
4879.91
19784.4
6676.38
24177.9
12009
22133.7
13116.5
22655.5
14652.2
19927
14976.3
17413.3
10345
17418.2
8881.02
22838.5
14593.9
22889.6
14727.4
21050.5
15850.6
21305.5
15919.5
18808.7
11942.2
19481
12234.8
17795
7712.34
8226.15
10028.5
17868.4
8433.88
7182.17
10170.9
18846.9
7675.08
9320.98
10098.1
19782.1
7859.69
10136.4
10546.9
3499.11
3780.3
1201.77
2306.45
10845.6
11476.4
4191.5
7457.15
13945.2
15489.8
6739.71
11470
12293.5
1040.98
13642.1
16858.6
9173.41
699.645
7430.79
12280.1
19804.5
13809
9957.33
12110.6
10607.9
9167.46
14392
3259.19
2655.21
1843.16
1851.82
10086.1
8493.69
6126.51
5806.37
12548.5
10600.4
7927.9
7107.86
5841.96
7445.75
12077.6
12526.3
14121.2
12843.3
15921.9
13845.9
10812.7
9102.06
9089.98
9551.9
12008.8
9448.06
10958.3
7948.69
9497.06
6525.06
11094.6
7262.57
10275.7
4761.34
8831.54
9550.82
12601.4
16413.1
13866.6
20172
7035.11
7794.22
9107.58
2868.52
7873.61
15158.9
7471.82
16260.4
13730.9
24906.9
13971.5
26442.6
5961.59
13038.4
5421.39
13902.8
8244.24
6214.75
11483.4
4534.76
8470.87
1638.03
10004.6
722.433
7926.19
9332.98
12032.5
5554.9
6560.4
11010.9
10651.7
7292.04
2074.57
1841.91
1669.45
1533.5
1416.09
1277.06
6936.47
5667.61
4888.56
4474.56
3580.62
3092.21
8451.18
7274.24
6712.28
5348.09
4352.23
4107.17
6533.16
5763.65
5616.01
10916.6
8273.39
6955.89
10307.9
7594.18
6146
10816
8516.12
7394.78
6752.9
4438.63
3455.25
15706.5
13554.3
11711.2
10114.4
8393.22
6947.84
9007.16
6977.32
5547.88
7582.61
5457.45
4173.49
7830.03
4349.55
2440.53
10378.2
14069.7
8206.16
10618.6
11207.9
16464.9
10014.2
14581.7
72.8873
629.484
-428.476
57.2723
2958.26
3415.42
1225.52
734.076
657.042
2365.39
9390.48
13708.2
6634.06
3650.08
9920.14
9852.35
15317.7
16877
-622.543
-4159.14
7566.4
7137.28
7196.42
5552.88
891.275
491.716
562.243
232.234
2025.1
195.721
-304.62
-850.39
9216.07
2373.04
6240.08
1616.73
9043.37
2753.74
10955.9
3523.58
8823.02
11922.7
8160.31
11629.2
14221.8
15048.5
13574.5
14249.6
5625.73
9396.06
6496.2
9334.31
8664.53
11203.6
9562.71
11320
14146.6
13996
14814.8
14054.8
5683.1
9093.74
6188.97
9263.28
-168.533
1320.17
7391.44
4619.78
-734.384
905.936
6847.09
4080.68
293.434
1581.4
7559.4
5037.43
750.019
1854.47
7600.59
5217.34
-667.408
-763.405
148.297
1.32104
-2928.07
-2960.88
-228.794
-390.056
-635.602
-2027.63
1654.25
992.878
-10272.7
-9598.83
-5595.2
-4308.23
-467.918
-10516.5
-10806.5
-4333.52
-6412.28
-868.485
10271.1
8042.75
7133.68
6691.88
4055.47
-784.175
-719.471
-62.4268
31.2832
-2564.73
-2513.22
-109.214
129.323
-2613.37
-3147.09
660.105
972.814
-5135.45
-2315.25
-8160.87
-5102.91
-3660.34
-2772.38
-4139.9
-3586.8
406.843
1337.84
3774.12
2380.94
1031.04
-1023.71
985.26
-774.271
1682.12
349.292
2067.18
2360.3
5212.65
4763.57
9926.78
5984.15
8121.56
8170.43
12331
9986.46
7816.82
4593.01
3889.94
3862.46
11707.4
5161.92
12880
5790.02
13755.1
10192.2
14680.5
10928.7
9491.21
3735.51
10635.8
4333.56
6159.53
4877.16
4743.03
7029.96
3976.43
4480.22
4051.06
6518.01
7114.36
4819.04
5361.97
8073.26
8656.99
5238.26
6730.88
8336.79
-731.555
-762.395
-854.547
-51.2266
-283.027
-312.212
-2767.46
-2943.04
-2942.7
-202.709
-807.899
-814.781
-3535.6
-3932.38
-4030.87
562.156
-799.376
-1079.51
-1232.68
-1050.38
-747.906
-3738.98
-3814.22
-3553.24
-3061.11
-3449.51
-3389.51
-3789.37
-4060.77
-3957.96
1302.56
-359.365
-483.641
3463.42
1975.55
1050.98
-997.383
-2105.05
-2696.39
-968.434
-2382.2
-2998.02
-437.663
-1967.16
-2407.06
2261.02
-503.032
-830.203
-24.83
-34.9247
-44.5549
-67.041
-248.848
-139.214
-115.422
-110.424
-14.2988
-77.2613
-178.469
-274.218
-431.502
-275.007
-309.613
-329.827
214.028
-31.305
-255.662
-488.34
-165.794
-226.059
-288.27
-325.542
-40.144
-135.713
-136.86
-133.489
209.202
6.27978
-116.967
-196.819
926.226
190.097
-90.2002
-290.184
1449.63
337.168
4.49346
-502.595
638.527
77.4857
-173.217
-433.655
1188.97
255.446
22.8375
-437.71
989.661
228.518
-118.301
-370.88