/*--------------------------------*- C++ -*----------------------------------*\
  =========                 |
  \\      /  F ield         | OpenFOAM: The Open Source CFD Toolbox
   \\    /   O peration     | Website:  https://openfoam.org
    \\  /    A nd           | Version:  11
     \\/     M anipulation  |
\*---------------------------------------------------------------------------*/
FoamFile
{
    format      ascii;
    class       volScalarField;
    location    "2";
    object      T;
}
// * * * * * * * * * * * * * * * * * * * * * * * * * * * * * * * * * * * * * //

dimensions      [0 0 0 1 0 0 0];

internalField   nonuniform List<scalar> 
5712
(
538.64
554.936
528.181
547.878
513.054
538.175
486.891
516.704
486.482
510.081
509.855
532.953
523.993
543.984
533.27
551.09
504.379
484.293
524.281
495.227
476.371
455.415
496.275
465.073
546.75
554.319
559.582
563.747
536.53
545.892
553.33
559.239
536.983
521.765
514.607
504.596
533.417
547.431
543.514
543.202
505.405
509.569
519.985
519.1
474.969
478.424
550.536
552.681
525.405
531.506
559.621
562.34
559.406
567.554
566.937
570.703
552.62
564.863
563.539
569.334
539.039
559.04
550.388
564.56
558.81
567.838
562.079
568.994
470.037
458.133
477.42
460.614
438.387
427.791
446.176
430.553
504.823
489.187
497.939
486.559
482.722
461.819
484.15
461.642
451.54
432.012
453.008
431.974
509.762
490.432
511.158
490.347
528.901
556.192
516.946
547.712
522.458
552.338
513.652
544.582
533.494
558.419
518.549
549.367
534.953
559.237
518.684
550.114
553.003
540.294
563.927
554.582
543.291
530.683
560.011
549.458
528.688
516.989
553.153
541.839
455.275
418.355
487.162
513.058
544.641
412.743
449.562
481.422
505.867
534.951
418.15
451.811
482.067
508.831
538.405
517.693
498.197
522.532
503.891
511.859
493.762
520.601
501.798
502.637
485.752
517.589
499.05
402.657
390.226
440.538
427.668
471.003
456.987
494.515
479.114
516.3
499.068
406.878
393.301
441.938
431.284
472.488
461.212
498.216
485.013
519.834
504.898
445.713
440.282
444.199
439.14
411.353
392.609
411.32
391.771
474.434
472.637
476.017
472.904
441.784
438.054
441.722
438.222
410.552
391.744
410.686
392.033
471.72
471.557
471.648
471.803
502.292
500.434
524.725
522.102
502.559
498.959
524.149
519.355
500.956
500.202
524.744
522.893
499.634
499.381
523.628
521.885
477.619
462.163
454.255
480.65
463.942
455.734
474.589
458.889
450.648
478.723
461.439
452.806
466.906
451.155
442.828
475.917
457.374
448.043
377.06
367.976
363.676
412.884
400.18
393.437
440.593
425.043
416.378
460.342
443.445
434.543
474.77
454.111
443.502
378.681
367.334
361.857
418.471
404.729
397.338
445.865
428.88
419.251
465.34
444.973
433.733
477.43
453.918
441.466
409.385
400.528
415.074
406.316
441.169
425.919
451.753
433.595
385.028
362.348
386.238
364.32
386.367
365.17
388.242
367.265
387.898
383.944
387.28
381.765
368.619
372.277
410.511
413.382
439.143
442.003
391.242
395.71
391.204
393.943
375.398
378.657
340.286
322.592
345.67
325.967
342.972
323.19
348.248
327.014
347.248
323.993
354.357
328.999
358.297
332.153
360.262
334.107
383.102
373.695
390.658
377.249
408.937
398.648
416.5
401.95
369.905
356.133
362.6
352.619
394.988
379.264
396.894
379.921
421.148
403.754
422.822
404.059
374.042
358.224
376.069
359.07
350.065
326.351
338.956
320.665
343.387
322.314
335.747
318.312
354.151
329.377
340.922
322.208
356.403
331.461
341.826
323.073
323.834
312.751
315.96
308.652
326.134
315.455
316.316
309.422
330.603
321.517
317.313
311.629
364.055
387.545
346.651
333.729
317.258
382.569
359.4
340.124
327.825
313.511
387.262
363.983
345.376
330.852
315.437
303.639
295.273
301.494
293.864
306.679
298.165
302.875
295.327
312.726
303.97
305.579
298.036
372.305
360.396
349.575
338.288
332.552
322.743
320.508
311.253
308.852
301.231
375.795
361.348
353.394
339.871
336.494
324.75
323.316
312.51
310.881
302.47
357.65
339.725
360.834
341.827
380.651
360.869
383.186
361.707
342.733
326.868
339.746
324.602
363.509
343.188
364.26
343.828
384.975
362.195
385.472
362.678
345.42
328.462
346.193
329.05
326.764
313.236
312.575
302.185
325.123
311.495
311.777
301.499
328.211
314.512
313.117
302.442
329.753
315.246
314.047
303.317
286.62
282.48
280.873
281.642
278.353
277.247
289.742
285.123
283.302
283.145
279.68
278.409
295.584
290.464
288.351
285.518
281.427
279.866
348.768
341.126
337.622
328.019
321.671
318.96
313.45
307.653
305.374
301.714
295.643
293.027
287.275
282.399
280.467
347.533
337.809
333.604
327.515
318.97
315.31
313.475
305.88
302.753
300.908
294.185
291.627
286.255
281.654
279.861
308.591
299.343
293.213
288.527
310.082
299.901
293.348
288.463
308.693
299.439
293.324
288.627
310.617
300.192
293.584
288.668
308.676
299.529
293.606
288.961
311.043
300.489
293.971
289.035
312.476
301.227
294.138
288.977
313.694
301.994
294.516
289.165
310.111
300.331
294.089
289.241
308.209
299.913
294.205
289.754
308.264
299.531
293.869
289.375
307.113
299.342
293.956
289.762
311.636
301.086
294.339
289.271
309.127
300.444
294.479
289.918
312.849
301.786
294.709
289.534
309.896
300.941
294.816
290.218
306.175
298.502
293.088
288.777
303.318
297.553
292.938
289.163
306.194
298.549
293.184
288.887
303.549
297.663
293.011
289.24
306.333
298.668
293.383
289.133
304.214
297.95
293.184
289.398
306.166
298.732
293.59
289.479
304.748
298.217
293.4
289.63
305.925
298.801
293.763
289.842
300.999
296.859
292.656
289.853
299.646
296.515
292.556
290.084
301.489
297.043
292.755
289.929
300.187
296.713
292.649
290.145
302.382
297.393
292.918
290.039
301.119
297.072
292.807
290.247
303.466
297.852
293.193
290.23
302.181
297.516
293.033
290.397
304.503
298.384
293.531
290.441
303.075
297.989
293.296
290.577
305.941
299.37
294.073
290.773
304.372
298.978
293.942
291.034
305.271
298.893
293.794
290.593
303.74
298.492
293.608
290.792
306.528
299.82
294.324
290.946
304.985
299.472
294.266
291.279
307.139
300.27
294.639
291.199
305.635
299.966
294.614
291.554
284.207
281.234
279.107
277.751
277.094
284.203
281.241
279.112
277.755
277.097
284.265
281.264
279.123
277.761
277.101
284.278
281.281
279.135
277.768
277.107
284.345
281.302
279.144
277.773
277.11
284.368
281.329
279.161
277.784
277.118
284.478
281.394
279.199
277.808
277.135
284.637
281.488
279.254
277.841
277.16
284.449
281.36
279.176
277.793
277.124
284.551
281.393
279.191
277.801
277.13
284.412
281.33
279.158
277.781
277.116
284.501
281.361
279.173
277.79
277.122
284.547
281.419
279.211
277.814
277.14
284.644
281.446
279.223
277.821
277.144
284.699
281.506
279.262
277.846
277.163
284.778
281.522
279.267
277.848
277.164
284.229
281.231
279.102
277.748
277.092
284.255
281.23
279.099
277.746
277.09
284.273
281.253
279.114
277.755
277.097
284.288
281.246
279.108
277.751
277.094
284.346
281.287
279.132
277.765
277.104
284.349
281.276
279.124
277.76
277.1
284.426
281.321
279.15
277.776
277.112
284.415
281.31
279.143
277.771
277.108
284.47
281.341
279.161
277.782
277.116
529.733
526.849
529.354
526.492
529.029
526.317
529.525
526.933
531.85
529.33
536.38
536.785
535.077
534.581
536.886
537.617
537.021
537.608
564.242
571.125
572.577
572.905
572.976
556.849
569.098
572.117
572.806
572.953
564.319
571.155
572.585
572.907
572.977
556.939
569.141
572.127
572.81
572.954
564.37
571.181
572.593
572.909
572.977
557.026
569.182
572.139
572.813
572.954
564.643
571.253
572.61
572.913
572.978
557.365
569.276
572.161
572.818
572.956
565.28
571.389
572.639
572.919
572.98
558.165
569.455
572.199
572.826
572.957
565.848
571.461
572.649
572.921
572.98
560.165
569.855
572.278
572.841
572.961
565.712
571.449
572.649
572.921
572.98
559.41
569.698
572.248
572.835
572.96
565.88
571.461
572.649
572.921
572.98
560.518
569.938
572.295
572.844
572.961
565.937
571.474
572.652
572.921
572.98
560.582
569.967
572.3
572.845
572.961
424
460.612
458.176
419.6
402.485
403.997
405.925
408.849
417.945
421.99
448.712
458.007
456.823
466.785
432.314
436.97
419.743
423.201
412.821
414.923
366.296
348.346
301.901
295.69
298.384
295.41
299.968
363.805
357.528
340.087
346.816
343.202
320.696
330.602
326.36
314.954
318.632
313.268
360.79
334.229
318.026
314.384
322.269
317.993
310.182
308.468
306.502
303.016
311.519
308.671
362.859
341.249
349.24
329.881
322.542
334.925
310.76
303.722
313.598
347.815
331.811
317.685
302.757
285.134
337.019
325.263
312.462
298.463
282.434
298.967
294.872
289.534
283.296
276.497
293.443
290.266
286.079
281.151
275.768
295.852
292.282
287.589
282.082
276.083
293.195
290.06
285.923
281.052
275.734
297.258
293.453
288.467
282.628
276.268
345.693
328.993
314.673
300.18
284.112
339.677
323.292
309.455
295.779
281.127
330.142
319.108
307.017
294.196
280.438
331.725
317.127
304.406
292
279.504
328.951
314.84
302.507
290.629
278.928
314.925
307.555
298.668
288.821
278.361
322.604
313.186
302.51
291.111
279.156
319.117
310.394
300.382
289.696
278.622
310.192
303.883
296.052
287.229
277.814
313.139
306.073
297.522
288.066
278.086
308.774
302.758
295.232
286.722
277.64
344.465
328.819
314.969
300.523
284.271
326.076
316.474
305.438
293.343
280.143
312.85
306.073
297.718
288.306
278.201
309.808
303.701
296.043
287.307
277.865
316.43
308.977
299.928
289.761
278.747
312.936
306.282
298.006
288.574
278.318
306.232
300.863
294.01
286.085
277.454
304.739
299.623
293.06
285.469
277.234
303.007
298.176
291.951
284.757
276.984
299.951
295.675
290.112
283.636
276.608
307.335
301.673
294.509
286.323
277.516
304.898
299.73
293.114
285.487
277.237
345.821
330.332
316.519
301.896
284.935
331.67
321.127
309.292
296.215
281.424
337.786
324.982
312.118
298.162
282.257
322.906
314.337
304.11
292.584
279.826
316.813
309.442
300.404
290.135
278.889
326.833
317.276
306.203
293.95
280.396
306.729
301.256
294.284
286.242
277.504
300.571
296.19
290.504
283.886
276.695
309.161
303.212
295.714
287.123
277.806
504.006
542.152
497.345
537.052
473.745
518.22
480.151
523.374
485.809
471.989
516.892
489.212
460.98
446.341
490.34
460.788
520.877
535.09
550.713
557.268
514.512
528.391
546.722
553.956
529.836
504.568
508.295
491.536
518.374
541.419
541.279
542.691
502.939
508.964
518.1
518.648
473.258
478.004
548.161
552.157
522.853
530.894
557.776
561.958
548.985
564.15
563.266
569.476
542.642
561.592
560.343
568.211
529.593
555.982
545.807
563.022
557.173
567.259
561.752
568.871
465.695
457.765
474.66
460.598
437.182
429.801
445.147
431.87
501.352
488.529
492.147
485.117
481.47
461.937
483.837
461.721
451.134
432.807
452.942
432.264
508.149
490.196
510.733
490.308
526.112
555.24
516.298
547.502
517.833
550.764
512.35
544.166
532.168
557.947
518.279
549.277
534.594
559.102
518.622
550.092
535.821
520.686
558.532
548.121
527.751
513.483
555.053
543.713
515.879
503.466
549.086
537.471
456.562
428.596
482.486
507.497
542.684
425.556
452.08
476.117
499.065
532.631
426.253
453.565
480.373
506.772
537.767
499.916
485.704
515.96
502.75
496.093
482.537
515.368
501.691
489.908
476.784
514.337
500.408
418.45
409.536
444.891
434.891
467.773
456.402
489.711
477.139
515.615
501.979
417.81
406.709
445.984
438.193
472.678
464.658
497.607
487.585
520.265
508.036
447.967
444.15
445.729
441.594
416.869
400.732
414.376
396.347
474.991
473.861
476.452
474.617
442.698
439.376
442.027
438.634
412.162
394.06
411.198
392.739
472.141
472.281
471.799
472.035
502.474
501.067
524.933
522.58
502.513
499.927
524.366
520.246
501.134
500.579
524.887
523.149
499.708
499.513
523.679
521.967
476.944
473.091
491.323
486.145
473.827
469.394
490.023
483.895
467.847
463.3
488.126
480.644
401.854
396.553
426.961
421.204
447.936
441.678
467.672
461.435
487.843
477.797
396.372
390.084
431.306
424.204
456.13
447.461
475.434
464.714
489.051
475.941
406.69
400.023
415.582
406.968
432.768
421.274
449.6
431.833
388.555
368.948
392.149
371.316
388.113
370.892
392.174
373.081
390.561
385.566
389.871
384.57
373.595
376.624
411.137
413.628
438.561
441.891
393.011
396.321
392.866
394.529
378.213
379.663
353.389
334.674
355.113
335.763
354.948
334.407
356.235
335.444
357.941
333.984
360.606
335.872
362.053
336.443
361.569
335.603
389.221
380.869
393.729
381.424
411.429
403.554
417.547
404.844
374.718
361.029
371.468
360.832
396.604
381.507
397.412
380.649
421.751
405.337
423.045
404.588
376.591
360.874
376.871
359.922
356.292
332.145
343.915
324.932
353.886
330.748
343.762
324.737
357.536
332.801
343.656
324.659
357.468
332.583
342.707
323.874
349.882
345.001
332.017
327.625
351.352
346.77
331.561
327.382
353.746
350.169
330.92
327.44
383.785
404.419
366.951
350.699
328.405
402.855
383.665
366.64
349.794
326.631
400.8
379.355
359.951
343.151
324.161
338.93
331.768
321.527
312.209
341.403
334.674
321.916
312.963
345.333
339.274
322.541
314.048
396.301
388.297
377.481
370.479
360.872
355.019
344.11
337.708
322.106
313.952
392.568
380.555
371.742
360.346
353.247
342.799
336.909
326.449
319.878
310.927
367.396
351.086
366.067
347.949
389.267
372.011
387.69
367.664
348.042
332.495
349.133
334.647
366.142
346.237
365.077
344.743
387.218
365.157
386.17
363.567
348.157
331.305
347.044
329.908
331.53
317.782
316.295
305.438
333.178
319.302
317.663
306.77
330.773
316.879
315.193
304.211
330.587
315.994
314.705
303.858
325.753
323.68
296.89
295.354
329.485
327.014
297.988
296.258
334.269
330.364
299.234
295.769
381.18
376.093
364.043
359.581
349.303
345.407
330.818
325.32
298.344
292.891
369.894
364.87
350.297
345.893
333.135
329.16
315.236
310.993
292.429
288.308
316.634
304.344
296.339
290.484
317.178
304.444
296.23
290.281
316.19
304.137
296.251
290.429
316.81
304.208
296.143
290.276
315.345
303.77
296.287
290.607
316.102
303.814
296.135
290.407
315.767
303.434
295.584
289.903
314.863
302.788
295.04
289.506
314.275
303.122
295.958
290.477
311.454
302.185
295.803
290.896
313.942
303.235
296.296
290.93
311.792
302.526
296.104
291.211
314.214
302.846
295.539
290.091
311.053
301.817
295.472
290.666
313.727
302.392
295.124
289.819
310.537
301.403
295.154
290.477
315.535
304.098
296.546
290.948
313.865
303.72
296.728
291.594
315.104
303.924
296.507
290.952
313.609
303.61
296.672
291.577
314.399
303.633
296.481
291.043
313.234
303.415
296.577
291.552
313.165
303.177
296.424
291.25
312.655
303.154
296.501
291.588
311.926
302.75
296.347
291.529
312.16
303.382
296.641
292.661
310.97
303.194
296.685
293.115
312.098
303.314
296.611
292.646
310.937
303.127
296.644
293.086
311.9
303.158
296.494
292.555
310.781
302.98
296.535
293.012
311.476
302.898
296.388
292.477
310.408
302.744
296.405
292.924
310.716
302.513
296.255
292.411
309.673
302.407
296.234
292.817
309.019
301.601
295.666
292.024
307.704
301.446
295.688
292.409
309.806
302.062
295.971
292.228
308.624
301.948
295.987
292.639
308.323
301.151
295.3
291.741
306.906
300.938
295.322
292.122
307.727
300.711
294.966
291.468
306.253
300.444
294.961
291.833
285.297
281.859
279.467
277.971
277.254
285.243
281.842
279.46
277.968
277.252
285.259
281.833
279.451
277.962
277.247
285.186
281.805
279.438
277.954
277.242
285.221
281.802
279.432
277.949
277.238
285.12
281.762
279.412
277.938
277.23
285.002
281.697
279.375
277.915
277.213
284.835
281.603
279.321
277.882
277.189
285.126
281.747
279.4
277.93
277.224
285.151
281.733
279.387
277.921
277.217
285.212
281.784
279.419
277.941
277.232
285.219
281.766
279.405
277.932
277.225
285.013
281.687
279.366
277.909
277.209
285.052
281.679
279.357
277.903
277.204
284.861
281.6
279.316
277.879
277.187
284.92
281.604
279.314
277.877
277.185
285.374
281.878
279.474
277.975
277.257
285.441
281.892
279.478
277.977
277.258
285.348
281.86
279.463
277.968
277.252
285.419
281.877
279.47
277.972
277.254
285.312
281.831
279.444
277.956
277.243
285.379
281.85
279.453
277.961
277.246
285.288
281.804
279.427
277.945
277.235
285.323
281.817
279.433
277.949
277.237
285.264
281.786
279.416
277.939
277.23
528.1
526.58
528.311
526.76
528.903
527.339
530.194
528.503
532.691
530.86
536.673
537.166
535.557
535.291
537.049
537.814
537.074
537.67
564.139
571.129
572.581
572.907
572.976
556.819
569.115
572.125
572.808
572.954
564.288
571.167
572.59
572.909
572.977
557.029
569.176
572.137
572.813
572.954
564.447
571.206
572.599
572.911
572.977
557.288
569.242
572.153
572.816
572.955
564.804
571.288
572.617
572.915
572.978
557.752
569.355
572.178
572.821
572.956
565.444
571.422
572.646
572.921
572.98
558.553
569.534
572.216
572.829
572.958
565.915
571.477
572.653
572.922
572.98
560.318
569.895
572.287
572.843
572.961
565.821
571.474
572.655
572.923
572.98
559.67
569.76
572.262
572.838
572.96
565.917
571.47
572.651
572.921
572.98
560.597
569.96
572.3
572.845
572.962
565.949
571.477
572.652
572.921
572.98
560.607
569.974
572.301
572.845
572.962
424.117
460.336
457.135
419.913
413.023
419.244
410.66
418.386
440.408
457.147
444.307
459.096
279.949
280.526
281.81
283.884
286.885
290.952
280.435
281.028
282.34
284.437
287.409
291.343
279.581
279.399
280.194
280.074
281.562
281.585
283.79
284.089
286.976
287.63
291.082
291.824
296.203
302.674
310.536
319.863
328.869
334.781
296.292
302.221
308.997
316.124
322.414
326.334
279.287
278.335
277.06
275.538
273.863
279.808
278.777
277.394
275.747
273.934
280.967
279.758
278.139
276.211
274.092
282.838
281.339
279.338
276.959
274.346
285.541
283.622
281.066
278.035
274.712
289.196
286.701
283.393
279.483
275.203
279.726
278.707
277.342
275.714
273.923
280.261
279.159
277.685
275.928
273.996
281.444
280.16
278.444
276.401
274.157
283.335
281.758
279.654
277.155
274.413
286.009
284.014
281.361
278.219
274.774
289.542
286.988
283.607
279.616
275.248
278.954
278.054
276.846
275.405
273.818
278.79
277.915
276.74
275.339
273.796
279.509
278.523
277.202
275.627
273.894
279.4
278.431
277.132
275.583
273.879
280.744
279.569
277.996
276.122
274.062
280.764
279.587
278.009
276.131
274.065
282.754
281.269
279.285
276.926
274.335
283.024
281.499
279.46
277.035
274.372
285.624
283.694
281.122
278.07
274.723
286.215
284.193
281.5
278.306
274.803
289.317
286.805
283.473
279.533
275.22
289.985
287.369
283.899
279.797
275.309
293.896
290.645
286.364
281.33
275.83
299.651
295.445
289.971
283.572
276.593
306.567
301.165
294.256
286.248
277.511
314.618
307.745
299.185
289.368
278.608
322.141
313.786
303.726
292.323
279.705
326.984
317.645
306.641
294.252
280.444
293.971
290.704
286.408
281.358
275.84
299.251
295.113
289.724
283.42
276.541
305.239
300.085
293.454
285.746
277.336
311.47
305.22
297.303
288.161
278.171
316.897
309.656
300.631
290.27
278.912
320.255
312.395
302.691
291.586
279.381
280.042
280.814
282.316
284.646
287.96
292.413
280.532
281.326
282.859
285.206
288.462
292.704
279.675
279.496
280.485
280.375
282.077
282.125
284.581
284.935
288.114
288.85
292.698
293.61
298.079
304.875
312.868
321.949
330.296
335.285
297.944
304.068
310.858
317.739
323.512
326.723
279.372
278.408
277.115
275.573
273.875
280.069
278.999
277.564
275.853
273.971
281.426
280.148
278.437
276.399
274.156
283.53
281.93
279.79
277.243
274.443
286.519
284.458
281.707
278.439
274.849
290.528
287.843
284.271
280.037
275.392
279.814
278.783
277.4
275.75
273.936
280.531
279.39
277.861
276.039
274.034
281.915
280.562
278.751
276.594
274.222
284.034
282.355
280.111
277.443
274.511
286.968
284.834
281.99
278.615
274.909
290.784
288.053
284.426
280.133
275.425
279.039
278.126
276.901
275.439
273.83
278.878
277.989
276.797
275.374
273.808
279.772
278.747
277.373
275.734
273.93
279.673
278.663
277.309
275.694
273.917
281.211
279.967
278.3
276.313
274.127
281.254
280.004
278.328
276.331
274.133
283.473
281.882
279.754
277.221
274.435
283.793
282.154
279.961
277.35
274.479
286.661
284.58
281.801
278.498
274.869
287.326
285.144
282.229
278.765
274.96
290.791
288.069
284.445
280.146
275.429
291.616
288.769
284.976
280.478
275.542
295.614
292.122
287.505
282.052
276.077
301.676
297.199
291.333
284.439
276.891
308.729
303.054
295.737
287.197
277.839
316.575
309.477
300.562
290.262
278.92
323.5
315.003
304.708
292.97
279.936
327.469
318.083
306.997
294.49
280.53
295.482
292.003
287.411
281.992
276.057
300.946
296.578
290.859
284.142
276.789
306.956
301.577
294.618
286.49
277.592
312.969
306.532
298.335
288.824
278.4
317.923
310.561
301.347
290.733
279.074
320.62
312.717
302.948
291.753
279.439
367.08
349.01
304.591
297.827
301.433
297.809
302.9
373.461
371.558
349.653
361.896
328.257
340.386
321.493
325.797
319.05
367.116
340.97
324.247
319.427
328.034
322.37
313.295
312.341
311.333
307.049
316.955
313.18
365.328
343.183
353.648
332.814
326.267
340.063
314.462
307.231
317.993
348.664
332.605
318.37
303.253
285.335
337.685
325.882
312.981
298.823
282.572
301.443
297.019
291.204
284.359
276.862
295.398
291.95
287.38
281.974
276.05
298.649
294.696
289.458
283.268
276.489
295.391
291.951
287.383
281.977
276.051
299.953
295.784
290.277
283.778
276.663
356.482
339.313
323.434
306.272
286.489
355.23
338.04
321.778
304.083
284.058
339.84
328.215
314.581
299.27
282.258
348.576
332.994
317.627
300.847
282.639
322.222
314.172
304.018
292.326
279.586
332.382
322.27
309.987
296.068
280.901
316.419
309.466
300.525
290.14
278.827
320.165
312.529
302.795
291.544
279.305
314.299
307.733
299.235
289.334
278.55
351.292
335.413
320.625
304.509
285.888
332.71
322.594
310.472
296.705
281.35
318.77
311.379
301.973
291.079
279.167
314.555
307.915
299.394
289.478
278.62
321.942
313.941
303.929
292.384
279.669
317.067
309.958
300.94
290.482
278.984
309.128
303.403
296.009
287.37
277.899
308.34
302.779
295.54
287.062
277.784
307.491
302.099
295.03
286.73
277.665
303.67
298.904
292.629
285.24
277.159
312.441
306.195
298.096
288.64
278.319
309.099
303.421
296.021
287.355
277.882
348.48
332.824
318.662
303.436
285.569
333.58
322.887
310.752
297.212
281.797
342.286
329.212
315.695
300.635
283.182
325.724
316.887
306.182
293.96
280.317
320.346
312.605
302.944
291.797
279.473
331.868
321.914
310.024
296.513
281.321
310.181
304.29
296.677
287.782
278.037
303.813
299.013
292.708
285.293
277.179
313.284
306.859
298.606
288.993
278.456
279.987
293.52
305.967
316.818
325.466
331.988
485.123
479.251
455.916
461.653
469.794
460.928
446.47
436.053
504.347
519.657
498.015
511.744
488.821
480.374
500.184
475.427
470.67
447.97
452.583
462.672
454.85
440.118
431.187
494.475
505.501
488.952
498.611
480.403
472.591
488.559
461.964
458.495
436.89
440.264
452.289
445.963
430.831
423.301
479.434
490.07
475.032
484.632
468.489
461.906
476.481
448.093
445.541
425.319
427.892
440.61
435.179
420.457
413.987
465.26
476.53
461.733
472.08
456.431
450.147
464.883
438.06
436
416.899
419.067
431.745
427.06
412.671
406.767
454.567
466.605
451.567
463.046
447.309
441.777
456.795
431.271
429.453
411.155
413.118
425.653
421.569
407.25
401.77
447.54
461.224
444.802
457.766
441.281
436.369
451.521
406.63
403.55
429.063
433.324
399.278
393.981
422.129
413.646
384.341
364.099
383.424
365.785
379.751
379.209
368.452
402.461
399.593
423.317
427.022
395.6
390.665
417.176
409.318
379.844
360.333
379.081
362.169
375.642
375.545
364.608
395.831
393.302
414.756
417.741
389.762
385.249
409.657
402.881
375.259
355.683
374.434
357.337
371.316
371.148
359.568
387.63
385.434
405.092
407.526
382.138
377.644
400.798
394.479
368.54
349.889
367.824
351.345
364.994
364.768
353.577
381.084
379.092
397.804
399.941
376.137
371.886
393.951
388.144
362.8
345.572
362.175
346.664
359.836
359.541
348.91
376.415
374.56
392.756
394.726
371.988
368.206
389.163
383.782
359.146
342.651
358.644
343.714
356.545
356.425
346.173
539.258
555.46
528.212
547.835
513.065
538.155
486.88
516.684
486.469
510.058
509.874
532.937
524.046
543.962
534.001
551.753
504.376
484.284
524.267
495.215
476.356
455.401
496.257
465.058
547.219
554.637
559.955
563.988
536.529
545.877
553.274
559.195
536.962
521.757
514.594
504.587
533.407
547.408
543.507
543.197
505.396
509.561
519.975
519.092
474.957
478.414
550.529
552.677
525.397
531.5
559.614
562.338
559.624
567.638
567.089
570.758
552.599
564.854
563.511
569.324
539.026
559.034
550.371
564.553
558.803
567.835
562.077
568.993
470.029
458.125
477.411
460.606
438.376
427.781
446.164
430.544
504.814
489.18
497.931
486.552
482.714
461.812
484.142
461.634
451.53
432.004
452.998
431.966
509.755
490.426
511.152
490.341
528.893
556.189
516.941
547.71
522.45
552.334
513.646
544.58
533.488
558.417
518.545
549.365
534.948
559.235
518.68
550.112
553.287
540.615
564.043
554.74
543.267
530.657
559.999
549.441
528.674
516.976
553.147
541.832
455.268
418.347
487.154
513.05
544.637
412.736
449.556
481.414
505.858
534.947
418.142
451.804
482.061
508.825
538.402
518.008
498.446
522.745
504.063
511.84
493.755
520.594
501.797
502.625
485.746
517.584
499.049
402.651
390.222
440.532
427.664
470.996
456.983
494.507
479.109
516.296
499.066
406.872
393.296
441.932
431.279
472.482
461.207
498.211
485.009
519.831
504.896
445.707
440.277
444.192
439.135
411.345
392.604
411.313
391.765
474.428
472.632
476.011
472.899
441.778
438.048
441.716
438.217
410.545
391.738
410.679
392.028
471.715
471.552
471.643
471.799
502.288
500.43
524.722
522.1
502.554
498.955
524.146
519.352
500.952
500.199
524.741
522.89
499.63
499.377
523.625
521.882
477.823
462.334
454.416
480.809
464.08
455.859
474.59
458.893
450.652
478.727
461.448
452.816
466.905
451.158
442.832
475.919
457.379
448.05
377.057
367.975
363.675
412.882
400.179
393.437
440.591
425.043
416.379
460.34
443.447
434.545
474.77
454.114
443.506
378.678
367.332
361.856
418.468
404.728
397.338
445.863
428.88
419.252
465.339
444.973
433.735
477.429
453.919
441.469
409.337
400.499
415.026
406.289
441.136
425.898
451.72
433.575
384.929
362.359
386.098
364.3
386.288
365.118
388.167
367.222
387.855
383.898
387.25
381.733
368.579
372.24
410.49
413.367
439.126
441.99
391.214
395.692
391.181
393.927
375.372
378.64
340.302
322.584
345.671
325.948
342.951
323.182
348.233
327.009
347.225
323.985
354.334
328.991
358.278
332.144
360.249
334.101
383.084
373.683
390.64
377.238
408.922
398.637
416.485
401.94
369.887
356.123
362.582
352.608
394.973
379.254
396.882
379.912
421.135
403.745
422.811
404.051
374.027
358.215
376.057
359.063
350.051
326.343
338.947
320.66
343.373
322.307
335.738
318.306
354.139
329.37
340.915
322.202
356.393
331.455
341.819
323.069
323.787
312.686
315.947
308.634
326.129
315.454
316.31
309.418
330.593
321.512
317.307
311.624
364.044
387.536
346.64
333.719
317.252
382.56
359.391
340.115
327.817
313.506
387.253
363.972
345.366
330.844
315.432
303.578
295.207
301.486
293.855
306.679
298.168
302.871
295.323
312.723
303.969
305.576
298.033
372.299
360.392
349.568
338.284
332.545
322.739
320.503
311.25
308.848
301.228
375.787
361.343
353.387
339.866
336.487
324.745
323.31
312.506
310.876
302.466
357.642
339.72
360.827
341.822
380.643
360.863
383.178
361.701
342.726
326.863
339.739
324.598
363.502
343.183
364.254
343.823
384.968
362.189
385.466
362.673
345.414
328.457
346.187
329.046
326.758
313.232
312.57
302.182
325.117
311.491
311.773
301.496
328.206
314.508
313.114
302.439
329.748
315.243
314.043
303.314
286.556
282.408
280.796
281.649
278.34
277.229
289.749
285.131
283.308
283.142
279.681
278.41
295.586
290.467
288.353
285.517
281.427
279.867
348.766
341.124
337.622
328.017
321.67
318.959
313.449
307.652
305.374
301.713
295.644
293.027
287.274
282.399
280.467
347.53
337.807
333.603
327.512
318.968
315.309
313.473
305.88
302.753
300.906
294.184
291.627
286.254
281.653
279.861
308.584
299.337
293.206
288.519
310.064
299.889
293.339
288.453
308.689
299.436
293.323
288.627
310.614
300.191
293.583
288.667
308.673
299.527
293.605
288.96
311.039
300.487
293.97
289.034
312.473
301.225
294.137
288.976
313.691
301.992
294.514
289.164
310.107
300.329
294.088
289.241
308.206
299.911
294.204
289.753
308.26
299.528
293.868
289.374
307.109
299.34
293.955
289.761
311.632
301.084
294.338
289.271
309.124
300.442
294.478
289.917
312.846
301.784
294.708
289.533
309.893
300.939
294.815
290.217
306.171
298.498
293.083
288.769
303.311
297.549
292.934
289.157
306.191
298.547
293.183
288.886
303.547
297.661
293.01
289.24
306.33
298.666
293.382
289.132
304.212
297.948
293.183
289.397
306.163
298.73
293.589
289.479
304.745
298.216
293.398
289.63
305.922
298.799
293.762
289.841
300.993
296.855
292.652
289.848
299.635
296.509
292.552
290.08
301.487
297.042
292.754
289.929
300.186
296.712
292.648
290.143
302.379
297.391
292.917
290.038
301.117
297.07
292.805
290.246
303.464
297.85
293.192
290.229
302.178
297.514
293.031
290.396
304.5
298.382
293.529
290.441
303.072
297.987
293.295
290.576
305.938
299.368
294.071
290.772
304.369
298.976
293.94
291.033
305.267
298.891
293.793
290.592
303.737
298.49
293.606
290.791
306.526
299.818
294.323
290.945
304.982
299.47
294.265
291.278
307.137
300.268
294.638
291.198
305.632
299.964
294.613
291.553
284.204
281.233
279.106
277.751
277.094
284.199
281.239
279.111
277.754
277.097
284.265
281.264
279.123
277.761
277.101
284.278
281.281
279.135
277.768
277.107
284.344
281.302
279.144
277.773
277.11
284.368
281.329
279.161
277.784
277.118
284.478
281.394
279.199
277.808
277.135
284.637
281.487
279.254
277.841
277.16
284.448
281.36
279.176
277.793
277.124
284.551
281.393
279.191
277.801
277.13
284.411
281.33
279.158
277.781
277.116
284.5
281.361
279.173
277.79
277.122
284.546
281.418
279.211
277.814
277.14
284.643
281.446
279.223
277.821
277.144
284.698
281.506
279.262
277.846
277.163
284.778
281.522
279.267
277.848
277.164
284.226
281.23
279.102
277.748
277.092
284.252
281.229
279.099
277.746
277.09
284.273
281.252
279.114
277.755
277.097
284.288
281.246
279.108
277.751
277.094
284.345
281.287
279.132
277.765
277.104
284.348
281.275
279.124
277.76
277.1
284.426
281.321
279.15
277.776
277.112
284.415
281.31
279.143
277.771
277.108
284.469
281.341
279.161
277.782
277.116
529.799
526.926
529.365
526.501
529.031
526.32
529.524
526.933
531.849
529.329
536.378
536.783
535.076
534.579
536.884
537.615
537.019
537.606
564.3
571.14
572.58
572.906
572.976
556.885
569.108
572.119
572.806
572.953
564.316
571.154
572.585
572.907
572.977
556.943
569.143
572.127
572.81
572.954
564.37
571.18
572.593
572.909
572.977
557.028
569.182
572.139
572.813
572.954
564.643
571.253
572.61
572.913
572.978
557.366
569.276
572.161
572.818
572.956
565.28
571.389
572.639
572.919
572.98
558.165
569.455
572.199
572.826
572.957
565.848
571.461
572.649
572.921
572.98
560.164
569.855
572.278
572.841
572.961
565.712