/*--------------------------------*- C++ -*----------------------------------*\
  =========                 |
  \\      /  F ield         | OpenFOAM: The Open Source CFD Toolbox
   \\    /   O peration     | Website:  https://openfoam.org
    \\  /    A nd           | Version:  11
     \\/     M anipulation  |
\*---------------------------------------------------------------------------*/
FoamFile
{
    format      ascii;
    class       volScalarField;
    location    "0.3";
    object      gradTz;
}
// * * * * * * * * * * * * * * * * * * * * * * * * * * * * * * * * * * * * * //

dimensions      [0 -1 0 1 0 0 0];

internalField   nonuniform List<scalar> 
5712
(
12634.5
40928
10290
41634.3
7404.52
41703.8
10806.6
59861.4
13071
81114.6
13497.3
61805
13534
52863.6
14143.8
48168.6
8395.81
5390.11
22794.2
13619.7
7843.99
4043.47
23156.5
11122.9
10211.3
8171.84
32350.8
24909.4
7720.91
6331.75
31548
25035.4
18144.7
7854.67
15592.9
7124.74
7932.64
17828.3
55863.3
14709.1
20253.2
6221.1
67345
17724.9
17522.8
5324.72
42645.4
13014.3
21707.6
7292.77
39428.6
12336.4
15313.1
7586.66
19367.4
7890.35
16513.3
8868.38
18684.3
7546.61
19571.5
11550.5
15731.1
7317.68
22195.5
8449.17
7516.84
2778.39
21137.5
14268.8
12637.7
8619.94
18953.8
14516.8
10314.7
7748.08
13959.5
9569.39
20937.9
14256
7981.05
5398.68
3559.67
2793.69
6352.18
4774.68
2702.26
2505.92
8945.51
5844.06
4224.45
2696.58
13956.6
8299.28
11355.4
15006
19811.4
15206.7
16856.5
25450.8
8891.72
4646.75
6489.46
8524.75
4164.77
1933.47
2622.01
3046.4
21529.6
36996.8
14304.1
41893.8
24287.7
35296.7
17229.4
43094.6
26200.1
30589.5
21476.4
40951.3
21161.6
19730.2
20257.7
21143.6
24200
18203
22248.1
27059.7
31826.2
49412.6
15488.9
15608.6
16490.1
20837.9
34978.7
41169.7
33521.6
47963.7
41711.4
36991.6
31196.2
46783.9
40347.6
30763.3
27466.3
42943.9
38159.3
12575.2
8918.46
16286.1
13232.2
21238.3
18438.2
26400.8
24029.4
38577.6
36030.7
11539.7
9425.71
14585.3
14155
18324.2
19274.6
23612
25287
33391.2
35063.2
11813.7
7886.64
7340.2
7272.18
12073.5
11414.1
7646.53
9646.1
7999
7951.39
12804
9025.73
2149.64
4451.83
522.172
1258.61
3558.76
6058.43
855.476
1772.99
2036.65
4715.72
455.72
1334.53
9423.26
7476.62
12367.8
6542.45
15530.5
10745.9
20401.8
12256.3
3250.86
3886.61
6210.58
2915.37
2512.52
2559.87
3593.56
2317.44
24324.6
13342.4
4035.04
27708
14413.6
4417.13
23050.5
12963.3
4161.76
26780.2
14155.4
4321.38
20320.2
11379.1
3500.84
25378.3
13682.1
4196.46
5729.11
3176.77
947.938
9815.91
5819.86
1818.75
14243.9
8484.66
2667.6
18679.9
10733.2
3290.84
24603.9
13563.4
4232.06
6561.51
3664.5
1214.57
10343.2
6670.59
2335.47
14435
9287.13
3161.61
19173.9
11820.6
3888.24
24889.4
13881.2
4481.5
412.607
1943.26
3083.08
4075.14
3191.15
3024.45
7604
6553.52
524.24
591.746
558.84
614.961
334.368
863.996
653.771
1169.44
2403.96
1198.78
3189.25
1866.95
1400.6
2366.25
3512.66
-48.7632
8093.01
1235.27
-2940.04
-875.716
985.565
55.3106
-12.2219
-531.701
5234.01
1673.26
1355.25
603.548
5427.78
1722.96
1748.26
741.872
5589.71
1835.13
2452.03
1092.89
1520.84
649.411
-48.5628
41.7225
11368.5
8939.7
5155.65
4547.38
15148.9
12749.1
7397.23
6319.75
3493.01
3080.49
7877.33
5607.55
2723.22
2532.48
950.358
1287.93
4244.14
3654.29
1732.53
1898.23
1649.87
1706.38
395.623
897.65
2291.4
938.135
1949.23
785.765
3957.85
1349.07
3152.26
1184
1010.3
530.472
1081.84
422.2
104.57
119.663
545.129
158.929
5630.55
2682.76
1921.91
1378.1
5792
2945.01
1920.24
1391.23
6500.19
3555.76
1981.15
1450.35
12116
16216.9
8748.4
4369.52
1418.44
14028.7
10332.3
7474.27
4607.27
1674.37
13404.8
9598.76
5967.88
3352.2
1166.77
1363.5
692.508
885.618
568.266
1634.72
822.403
972.202
628.909
2187.16
1157.26
1133.65
751.679
9553.6
5805.92
6921.98
3874.51
4122.06
2486.61
2765.09
1648.64
1185.84
867.547
8055
5939.09
5594.89
3894.35
3614.57
2481.3
2194.64
1537.64
883.893
805.733
5152.74
2932.01
3160.27
1728.77
8380.28
5337.35
5351.16
3726.25
1941.64
1025.95
3048.4
1780.07
2709.43
1173.24
641.824
292.755
3601.97
2315.14
835.839
624.484
1802.07
707.96
447.378
177.505
1022.76
677.879
419.45
443.14
1594.53
1039.37
579.979
571.09
1005.3
459.167
292.23
290.188
172.823
62.8565
-155.62
-25.6904
321.789
110.991
27.4924
279.217
72.5242
17.0171
401.067
144.1
37.6809
317.677
86.7113
20.9741
553.674
208.044
52.8146
388.473
109.927
25.9382
3270.31
1646.94
463.911
1966.43
884.706
245.822
1260.99
527.72
144.888
797.144
303.663
75.8405
462.208
130.565
28.2954
3832.09
1817.43
542.546
2342.79
988.038
273.392
1449.24
581.731
154.395
875.909
326.96
81.7594
510.948
134.713
30.8495
401.926
87.0949
15.873
2.14576
165.313
36.7364
7.01903
1.11604
411.997
90.3818
17.2435
2.78831
190.339
42.9175
10.7054
2.60048
424.405
93.7968
20.7769
4.46785
276.503
63.5248
10.3585
1.33687
128.843
32.6572
0.131498
-1.56014
30.6223
12.7875
1.3168
0.0707306
283.552
67.321
10.9949
0.212437
200.615
46.3636
11.1354
1.47495
378.479
85.8784
18.2785
3.07231
289.933
64.6366
15.5711
1.92089
171.95
43.2427
7.37463
0.544129
119.145
28.8936
7.53458
1.40181
58.1353
17.038
3.44459
0.777797
40.6041
11.157
3.3549
0.926709
469.906
102.957
19.8263
2.67732
388.995
88.4622
21.8484
3.54642
462.423
101.234
19.506
2.54075
380.239
85.7505
21.5346
3.39483
445.481
97.0257
21.3157
3.54313
366.297
80.9903
21.9432
3.80744
356.898
79.1419
20.2209
4.93342
397.37
86.7409
26.353
5.05652
288.493
63.6524
17.1651
2.97509
248.279
56.2771
16.1566
3.2991
87.2732
19.3645
5.00654
1.30797
265.461
59.215
16.6287
3.30628
94.6486
20.6882
5.37607
1.41727
285.873
61.9922
17.4447
3.40672
103.16
21.9211
5.64904
1.51166
269.94
57.6818
17.5541
3.39187
106.546
22.0962
6.12273
1.6119
246.234
52.9219
16.2651
3.17812
96.2677
20.5184
6.25972
1.61822
141.068
30.3904
7.6984
1.52339
67.9019
15.4181
4.02145
1.0537
188.502
39.9744
11.2771
2.25741
82.5331
18.1763
5.2367
1.38602
87.8608
19.3826
4.74804
1.03152
42.6558
10.0805
2.41264
0.678841
31.8214
7.68357
2.23523
0.605832
15.9393
4.26712
1.17193
0.362284
0.369848
0.0611825
0.0101774
0.00175624
0.000364462
0.167251
0.0281724
0.00481311
0.000853374
0.000181674
0.428188
0.0722551
0.0128802
0.0024128
0.000542151
0.247843
0.043231
0.00836627
0.00168276
0.000399428
0.451244
0.0790164
0.0152587
0.00306516
0.000727847
0.370538
0.0872499
0.0195495
0.00427267
0.00107074
0.246467
0.0722427
0.0174375
0.00396677
0.00102259
0.186312
0.0582647
0.0152612
0.00368188
0.00099255
0.320337
0.0726012
0.0158046
0.00340554
0.000848144
0.243367
0.0565849
0.0129125
0.00287768
0.000733478
0.405858
0.0756919
0.0152793
0.00316991
0.000770598
0.256734
0.0624531
0.0143861
0.00320306
0.000812412
0.267152
0.0647842
0.0147462
0.00327517
0.000835343
0.204819
0.0496341
0.011859
0.00274274
0.000720159
0.168685
0.0458058
0.0117428
0.00283673
0.000769149
0.143796
0.0369939
0.00938285
0.00227378
0.000620131
0.370575
0.0568341
0.00908535
0.00152239
0.000307786
0.166061
0.0235109
0.00365917
0.000606625
0.00012184
0.399316
0.0646242
0.0109708
0.00196581
0.000425363
0.176779
0.0266756
0.00441667
0.00077998
0.000166822
0.397178
0.064319
0.011614
0.00222928
0.000512772
0.213164
0.0354423
0.0066317
0.00130921
0.000307174
0.407588
0.0746421
0.0151399
0.00315328
0.000767664
0.269282
0.0483733
0.0097706
0.00203107
0.000493532
0.297861
0.070622
0.0160658
0.00355082
0.000895286
3468.93
8811.26
3554.8
8673.23
3854.18
8407.83
4204.19
8240.16
3918.17
7959.65
988.085
2412.28
2117.99
4447.96
361.045
1074.7
35.2796
307.246
28299.1
9791.54
4695.51
3069.88
2431.39
8015.2
3174.89
1637.64
1050.29
800.25
27847
9613.22
4622.79
3022.35
2398.74
8135.66
3393.34
1669.72
1074.92
836.142
26427.8
9138.25
4403.03
2881.08
2286.57
7838.63
3263.26
1606.76
1034.99
806.045
24162.7
8375.66
4049.61
2652.7
2104.53
7470.85
3077.69
1506.7
965.889
748.089
20470.6
7129.38
3466.05
2275.27
1805.69
6914.81
2816.77
1375.81
880.837
680.943
10261.1
3754.8
1852.59
1218.11
964.989
3349.29
1390.37
681.689
437.355
338.995
14881.7
5350.12
2621.42
1721.16
1364.68
4939.04
2035.8
1004.22
647.596
503.291
6129.88
2269.08
1125.24
741.39
587.316
1885.86
805.917
394.943
253.815
197.992
2109.76
780.756
388.763
256.848
203.716
699.807
272.08
128.28
84.8006
63.0359
-1415.67
-333.777
6486.73
-1293.75
909.836
972.243
2589.09
3399.18
2287.27
4378.75
4168.08
6416.6
5540.61
6824.06
2773.95
3667.42
2639.5
3140.65
1384.12
1437.58
1214.41
559.653
118.177
14.1038
9.39803
8.94934
49.6793
9442.25
3113.56
2789.58
2184.06
522.41
311.021
1451.22
205.94
186.079
170.065
46.2655
5009.37
2158.42
788.142
469.826
1199.77
624.331
206.495
306.331
15.1414
65.1787
316.393
247.717
5378.08
1744.73
2924.93
1077.96
1099.36
2491.98
386.623
49.186
407.329
632.415
364.95
222.287
132.593
62.5924
345.136
211.543
122.45
64.43
22.1774
92.3088
65.466
41.2344
22.0379
6.87606
11.5757
8.63897
5.69213
3.1398
0.99093
7.403
5.29518
3.36032
1.80521
0.562871
7.04517
5.04194
3.20641
1.72797
0.540893
39.4893
28.5759
18.3515
9.95399
3.12769
5317.41
3309.65
1945.2
1082.86
548.679
1959.59
1180.5
713.227
382.09
142.228
1760.35
1099.26
653.146
344.405
123.555
1309.48
743.98
427.743
222.041
73.1118
320.392
178.143
102.965
53.3712
17.2491
239
167.037
104.151
55.4912
17.4944
1007.9
651.396
381.32
196.114
63.4682
167.759
119.674
74.1877
39.4919
12.5991
141.084
97.7342
60.6525
32.2613
10.1535
135.612
97.1789
61.7194
33.3248
10.5734
32.5475
21.0187
12.3254
6.32034
1.96065
2876.06
1846.66
1108.59
624.582
314.682
1385.59
873.445
526.72
279.443
98.3712
588.47
403.216
248.189
131.434
41.793
350.333
239.57
147.128
77.7087
24.5526
855.053
564.652
337.825
175.883
56.3922
473.649
327.894
203.073
107.706
33.73
155.087
106.64
65.7935
34.8525
10.9572
235.567
164.7
102.574
54.4528
16.9891
11.8813
8.65966
5.71571
3.22212
1.05826
50.7179
35.8746
22.5833
12.0851
3.77966
240.169
166.011
102.482
54.1403
16.9371
190.374
133.153
83.0108
44.1231
13.7944
2848.23
1584.91
957.011
539.474
265.153
1092.98
672.037
390.598
204.671
70.6731
1751.44
1108.03
651.676
345.628
123.112
704.612
450.032
264.676
139.313
47.0953
793.938
529.686
320.023
167.88
53.301
1624.52
1004.97
599.639
314.915
104.135
294.301
203.976
126.226
66.7851
20.8579
38.2621
27.057
17.0274
9.10898
2.84645
307.558
212.1
130.973
69.3349
21.7548
-51346.9
-81127.2
-42900.6
-65556
-43079.3
-85352.9
-51320
-108418
-32956.7
-22755.5
-36002.5
-22990.7
-28813.2
-18317.3
-34602.4
-18799
-45420.7
-36618.6
-64121.6
-49136.3
-39118.1
-33400.3
-53255.5
-42488.9
-30700.3
-32307.9
-25294.2
-25164.4
-31740.7
-28824.8
-66620.7
-18333.6
-26532.7
-10096.3
-76718.1
-21515.9
-22817.4
-8978.09
-52646.6
-16562.5
-27846.1
-10900.3
-49202.3
-15134.6
-26311.5
-11018
-32256.1
-12044.8
-25143.8
-11618.2
-28019.5
-10531.5
-25671.1
-13528
-22163.7
-9336.77
-27758.2
-10271.4
-9702.07
-3559.71
-18690.1
-13083.7
-16269.4
-10093.7
-14768.7
-11562.5
-13086.2
-8772.23
-17937.6
-11114.5
-21345.7
-14696.6
-11275.9
-6898.61
-6259.75
-4183.95
-9109.31
-6028.7
-5088.24
-3745.32
-12289.6
-7271.39
-6860.25
-3977.89
-17067.9
-9442.74
-12590.1
-15615
-22098.6
-16303.8
-17948.2
-26206.1
-11440.1
-5550.39
-7556.31
-8989.09
-6144.23
-2654.53
-3554.2
-3429.47
-27542.3
-35408.1
-16448.5
-42626.2
-28453
-33402.2
-19011.8
-43511.7
-28256
-29391.8
-22744.7
-41135.4
-15538.1
-11585.3
-19127.1
-23283.4
-25586.2
-15025.4
-19801
-26017.4
-31795.8
-49865.3
-10747.1
-13127.2
-16169.4
-21544.3
-35674.6
-34143.7
-23127.9
-45295.2
-33704.6
-31231.3
-22335.9
-44535
-33499.5
-26774.7
-20618.3
-41320.5
-32974.3
-11889.3
-8960.91
-15177.3
-11951.1
-19098.8
-15548.8
-23659.8
-19991.2
-37495.7
-32737.1
-10134.1
-8757.23
-13071.1
-12453.3
-16931.8
-16911.9
-22621.9
-22734.8
-33190.4
-32701.4
-10708.8
-7466.3
-7499.61
-7344.73
-10161.2
-10486.3
-7381.7
-9253.91
-8456.01
-8280.38
-12537.5
-8969.67
-2753.68
-4777.98
-1232.73
-1667.49
-3954
-6119.22
-1439.13
-2026.8
-2696.06
-5140.61
-1167.27
-1770.8
-9945.62
-7852.21
-12800.5
-6827.62
-15772.6
-10885.2
-20818.5
-12359.1
-3809.88
-4273.75
-6588.38
-3185.42
-3087.11
-2936.88
-3948.74
-2571.74
-13875.5
-4704.12
-19423.9
-6478.64
-13999.4
-4891.34
-19716.7
-6884.34
-13508.4
-4639.79
-20207.4
-7393.81
-5447.56
-1769.14
-8012.65
-2853.61
-10659.4
-3908.04
-14203.8
-5082.28
-21078.4
-7929.35
-5952
-2083.22
-8549.68
-3564.25
-11793.2
-4824.86
-16169.5
-6378.54
-21982.5
-8030.4
-10049
-8824.99
-8244.68
-7656.4
-17714.5
-13030
-15010.8
-11984.6
-5974.91
-3936.44
-2578.34
-1513.91
-5827.02
-4353.98
-2624.71
-2097.06
-4897.47
-6493.79
-5450.53
-6708.7
-4852.1
-3803.18
-6239.23
-2488.39
-11931.7
-4397.52
744.75
-1504.47
-2928.93
-2071.14
-1346.44
-1235.8
-2135.17
-860.552
-877.009
-328.312
-2375.26
-945.477
-1327.75
-459.521
-2886.87
-1130.66
-2345.08
-852.023
-2023.94
-663.918
-885.362
-232.412
-6993.29
-6236.58
-5905.62
-4523.41
-10480.6
-9272.09
-9115.83
-6740.42
-3605.65
-2862.28
-4567.6
-3949.08
-4105.57
-3012.29
-2414.41
-1913.2
-6301.55
-4510.14
-3678.82
-2845.04
-2468.87
-1906.35
-1399.27
-1242.42
-1954.92
-744.624
-1724.64
-672.611
-2431.79
-922.128
-2345.44
-924.039
-1286.62
-526.644
-1132.98
-406.134
-616.51
-214.343
-705.195
-188.505
-2590.64
-2504.64
-1144.86
-1160.39
-2723.77
-2695.99
-1163.31
-1160.74
-3112.79
-2867.83
-1231.03
-1145.42
-4965.26
-7968.7
-3523.74
-2113.68
-846.741
-10701.4
-6985.72
-4991.32
-3191.21
-1294.38
-8237.81
-5755.96
-3724.05
-2295.47
-852.847
-2134.69
-1534.79
-1093.92
-1080.21
-2295.6
-1645.26
-1111.51
-1095.33
-2573.3
-1952.91
-1122.01
-1118.61
-9106.23
-6514.2
-6717.1
-4665.85
-4480.31
-3143.08
-2817.66
-2028.43
-1091.23
-1050.29
-6868.21
-5818.72
-4679.12
-3914.83
-3010.61
-2479.14
-1846.89
-1527.65
-686.625
-808.353
-3804.42
-2431.29
-2759.05
-1432.96
-6468.81
-4652.12
-4888.36
-3337.66
-1655.04
-818.796
-2261.89
-1452.92
-2757.3
-1123.94
-895.982
-362.992
-3779.7
-2291.41
-1249.7
-762.324
-1789.66
-659.442
-580.393
-207.938
-860.794
-559.949
-353.134
-391.954
-1215.26
-858.691
-446.626
-498.834
-976.1
-424.091
-272.745
-271.693
-223.037
-70.6179
145.533
25.0342
-919.068
-297.672
-646.216
-101.895
-1026.62
-354.826
-672.705
-114.524
-1178.74
-391.531
-665.874
-105.314
-3750
-1164.76
-2698.62
-852.455
-1963.65
-659.784
-1194.76
-369.922
-626.12
-118.818
-3869.87
-1148.08
-2522.8
-679.374
-1605.8
-425.83
-968.133
-234.042
-593.105
-112.383
-251.438
-60.2457
-10.9381
-1.1364
-101.999
-24.6218
-4.88587
-0.736932
-266.506
-63.3175
-12.1083
-1.73959
-118.87
-27.7114
-7.91954
-2.13355
-292.764
-67.9564
-15.5995
-3.42345
-196.552
-42.555
-5.24593
-0.0843155
-97.4905
-18.6758
4.31327
2.81344
-28.2189
-2.24703
2.86611
1.15486
-222.769
-51.1745
-6.70422
0.988693
-160.939
-34.717
-7.83761
-0.471285
-284.874
-65.4448
-13.6438
-1.95473
-219.367
-47.3262
-11.1801
-0.596084
-147.681
-32.8952
-4.04454
0.43763
-102.678
-21.9305
-5.13409
-0.601824
-55.2775
-10.2716
-0.60223
0.133622
-36.0374
-6.70535
-1.45042
-0.233048
-322.239
-75.6049
-14.1347
-1.30695
-318.255
-71.258
-18.5409
-2.34913
-318.841
-74.0498
-13.7121
-1.12235
-310.305
-68.8466
-18.2201
-2.18657
-310.91
-70.9031
-15.9786
-2.32328
-293.715
-64.3306
-18.8631
-2.67266
-237.377
-53.7526
-14.7235
-3.68106
-313.637
-67.6068
-22.5635
-3.69197
-208.44
-44.5682
-12.4243
-1.45577
-239.01
-48.432
-14.6187
-2.55577
-92.4662
-17.3037
-4.17414
-1.0473
-237.785
-47.9051
-14.4083
-2.44679
-93.0761
-17.3131
-4.28698
-1.10015
-228.168
-45.5509
-14.5132
-2.46684
-88.7006
-16.2787
-4.08353
-1.07292
-204.722
-41.1299
-14.7447
-2.51625
-81.5813
-15.0172
-4.35326
-1.10456
-178.069
-35.9619
-13.0648
-2.29706
-63.5052
-11.8026
-4.2245
-1.03493
-115.418
-22.6959
-5.4974
-0.765039
-42.8337
-7.72347
-1.95525
-0.423048
-147.56
-29.2985
-8.70433
-1.4333
-48.7817
-8.86325
-2.9352
-0.713926
-74.8315
-14.2523
-2.99777
-0.386218
-29.7033
-5.15923
-0.87372
-0.169538
-26.554
-4.21501
-0.845798
-0.0617299
-10.4931
-1.18291
-0.0354775
0.0457284
-0.202676
-0.0308857
-0.00441809
-0.000607692
-8.95797e-05
-0.0946563
-0.0138134
-0.00194098
-0.000263279
-3.78134e-05
-0.225462
-0.0302939
-0.00400645
-0.000507995
-6.30537e-05
-0.122466
-0.0136521
-0.00163853
-0.000177746
-1.13044e-05
-0.206155
-0.023658
-0.00279194
-0.000276473
-6.74175e-06
-0.0527785
-0.00720379
-0.000350501
0.000174823
0.000103725
0.0617973
0.0100638
0.00312525
0.000928684
0.000296125
0.16073
0.038156
0.00947534
0.00231445
0.000644226
-0.0574604
-0.00768447
-0.000251805
0.000211514
0.000112197
-0.0112966
0.000837432
0.000885284
0.000344329
0.000125627
-0.151157
-0.0170978
-0.00180936
-0.000113623
2.74671e-05
0.0131915
0.000399641
0.000232671
0.000138982
6.4413e-05
-0.0122013
0.00275733
0.00210508
0.000744754
0.000251071
0.0149747
0.00938529
0.00298909
0.000820812
0.000247648
0.0980543
0.0293276
0.00770407
0.00190885
0.0005334
0.0652092
0.0227149
0.00622123
0.00156021
0.000437903
-0.194709
-0.0291633
-0.00418676
-0.000582531
-8.80741e-05
-0.0857139
-0.012004
-0.00170104
-0.000237393
-3.63272e-05
-0.201731
-0.0295667
-0.00410104
-0.000551053
-7.84806e-05
-0.0883454
-0.0123612
-0.00172063
-0.00023529
-3.47971e-05
-0.193867
-0.0238465
-0.00302642
-0.000368326
-4.08252e-05
-0.092132
-0.011298
-0.00148507
-0.00019299
-2.46357e-05
-0.133505
-0.0153958
-0.00192581
-0.000208872
-8.87119e-06
-0.0906353
-0.0103857
-0.00136655
-0.000170426
-1.66627e-05
0.00544669
-0.00178709
-0.000336474
-1.64663e-06
2.58846e-05
-3566.15
-8039.88
-3731.14
-8057.33
-4140.38
-8053.78
-4463.74
-8070.58
-4092.35
-7843.71
-1220.68
-2593.13
-2332.02
-4559.33
-579.909
-1248.08
-239.51
-466.528
-28936.6
-9925.51
-4720.7
-3074.19
-2432.16
-8141.13
-3213.98
-1646.88
-1051.98
-800.526
-28437.1
-9736.34
-4645.96
-3026.33
-2399.51
-8273.13
-3437.77
-1679.21
-1076.67
-836.481
-26913.6
-9240.35
-4422.31
-2884.44
-2287.27
-7976.79
-3304.94
-1615.5
-1036.63
-806.406
-24520.6
-8451.77
-4064.11
-2655.26
-2105.11
-7595.61
-3113.59
-1514.13
-967.258
-748.388
-20704.9
-7179.05
-3475.49
-2276.93
-1806.07
-7012.77
-2844.8
-1381.6
-881.914
-681.194
-10345.6
-3770.74
-1855.49
-1218.64
-965.132
-3413.36
-1404.7
-684.428
-437.846
-339.124
-15023.3
-5378.66
-2626.72
-1722.09
-1364.91
-5011.32
-2054.67
-1008.02
-648.279
-503.462
-6179.99
-2278.02
-1126.85
-741.722
-587.428
-1940.24
-817.094
-396.976
-254.171
-198.071
-2143.28
-786.32
-389.708
-257.012
-203.761
-747.555
-281.556
-129.996
-85.1575
-63.1605
-1915.05
-3673.51
-10840.9
-1742.45
-10750
-4861.73
-10313.9
-5064.25
-19925.8
-10737.1
-22294.9
-11779.3
-0.381518
-1.25434
-2.32432
-3.0125
-0.284998
17.3496
-1.03162
-3.54553
-7.19771
-11.4233
-11.795
4.86574
-0.190019
-0.140143
-0.608559
-0.507357
-0.937336
-1.02532
-0.0467437
-1.08239
3.15623
-0.734215
13.5587
3.26396
84.8718
241.589
543.911
403.668
323.214
96.2738
64.1928
199.256
412.865
571.05
499.31
194.01
-0.317645
-0.241813
-0.162865
-0.0915193
-0.0292393
-1.04237
-0.791738
-0.532039
-0.298429
-0.09525
-1.92427
-1.45494
-0.973094
-0.543711
-0.173156
-2.48438
-1.87015
-1.24532
-0.693384
-0.220387
-0.262439
-0.223594
-0.166981
-0.101153
-0.0335809
13.8941
10.0992
6.49192
3.51473
1.10051
-0.854461
-0.646276
-0.432277
-0.241495
-0.0768932
-2.9288
-2.20814
-1.47222
-0.820364
-0.260845
-5.91505
-4.43187
-2.936
-1.62757
-0.516024
-9.3256
-6.93264
-4.55669
-2.51022
-0.793177
-9.55738
-7.04491
-4.59279
-2.51433
-0.791938
3.86676
2.78316
1.77075
0.950725
0.296349
-0.158887
-0.12164
-0.0824349
-0.0465684
-0.014922
-0.117593
-0.090432
-0.0615873
-0.0349386
-0.0112228
-0.507954
-0.388046
-0.262398
-0.147966
-0.0473649
-0.424654
-0.325532
-0.220938
-0.124974
-0.0400762
-0.780802
-0.595077
-0.401404
-0.225885
-0.0722151
-0.854798
-0.651969
-0.440055
-0.247739
-0.0792241
-0.0526874
-0.053213
-0.0450207
-0.0295034
-0.0101441
-0.902434
-0.688153
-0.464201
-0.261126
-0.0834542
2.5385
1.85252
1.1942
0.647407
0.202774
-0.623501
-0.484575
-0.332231
-0.188938
-0.060691
10.8693
7.91227
5.09448
2.76197
0.86547
2.5923
1.86674
1.18927
0.639539
0.199575
67.1606
48.238
30.6999
16.5134
5.1591
187.416
132.07
82.7592
44.091
13.7467
408.803
280.477
172.393
90.9596
28.4461
294.564
197.633
120.478
63.6662
19.9303
255.688
175.177
106.61
55.651
16.0477
86.1193
61.0257
37.6737
19.6858
5.2686
50.7473
36.3951
23.1262
12.4239
3.87859
155.332
109.876
69.0302
36.8203
11.4709
316.324
220.221
136.687
72.414
22.545
430.243
295.206
181.445
95.6868
29.8076
377.502
258.568
158.381
83.2571
25.7406
147.834
101.541
62.3069
32.7978
10.1015
0.378906
1.25312
2.33216
3.05944
0.472854
-16.6608
1.02214
3.53096
7.17456
11.395
11.8035
-4.64142
0.189678
0.140587
0.61121
0.511723
0.953927
1.04683
0.119874
1.1487
-2.86569
0.58729
-12.3056
-2.794
-82.9052
-237.537
-536.078
-404.253
-339.363
-121.926
-63.3487
-197.349
-409.995
-570.88
-506.51
-206.988
0.315984
0.241094
0.162829
0.0917381
0.0293573
1.04237
0.792797
0.533602
0.299757
0.0957639
1.93311
1.46402
0.981074
0.549162
0.17509
2.52848
1.9087
1.27512
0.712093
0.226752
0.428366
0.358961
0.264913
0.159572
0.0529239
-13.3114
-9.64788
-6.18255
-3.33822
-1.04346
0.847886
0.642661
0.430974
0.241364
0.0769719
2.91923
2.20352
1.47124
0.82094
0.261252
5.90126
4.42698
2.93713
1.6305
0.517411
9.31224
6.93271
4.56467
2.51876
0.796701
9.57866
7.07505
4.62365
2.537
0.800219
-3.67179
-2.62721
-1.66023
-0.885913
-0.275087
0.158857
0.121886
0.0828206
0.0469033
0.0150528
0.11813
0.0910179
0.0621274
0.0353201
0.0113604
0.510716
0.390727
0.264668
0.149487
0.0478995
0.428753
0.329137
0.223756
0.126763
0.0406886
0.795872
0.607828
0.410999
0.231799
0.0742081
0.873971
0.667863
0.451787
0.254866
0.0816072
0.11546
0.102873
0.0799129
0.0498522
0.0167927
0.959903
0.734179
0.496978
0.280463
0.0898159
-2.29253
-1.66144
-1.06261
-0.571984
-0.178365
0.510772
0.407872
0.287243
0.166913
0.0542846
-9.82186
-7.11201
-4.55334
-2.45663
-0.767483
-2.19357
-1.55663
-0.975595
-0.51707
-0.159911
-65.5552
-47.046
-29.919
-16.0855
-5.02439
-184.18
-129.724
-81.2606
-43.2881
-13.4977
-402.428
-275.71
-169.238
-89.2179
-27.8968
-292.938
-194.781
-117.539
-61.5669
-19.1625
-265.465
-179.94
-108.122
-55.714
-15.9149
-103.537
-71.2768
-42.644
-21.5761
-5.70737
-50.0667
-35.8987
-22.808
-12.2531
-3.82541
-153.821
-108.795
-68.3509
-36.463
-11.3614
-313.962
-218.437
-135.499
-71.7539
-22.3352
-429.623
-294.321
-180.573
-95.0708
-29.584
-382.259
-261.167
-159.449
-83.5361
-25.7671
-156.968
-107.105
-65.109
-33.9236
-10.3812
-1323.84
-610.895
-112.597
-11.0071
-3.28452
-0.969889
-40.7517
-8771.35
-2577.06
-2480.94
-1277.83
-205.733
-1354.3
-85.2027
173.202
5.06679
-4732.42
-1986.3
-658.709
-419.16
-1151.71
-579.48
-195.924
-286.602
41.4005
-35.6643
-265.647
-213.492
-5330.91
-1749.7
-2858.33
-1062.95
-1068.78
-2370.61
-367.918
-30.633
-371.599
-696.009
-396.706
-235.439
-136.115
-63.1487
-378.271
-230.174
-130.928
-67.3127
-22.748
-87.7413
-62.0551
-38.9825
-20.7946
-6.48336
-8.90745
-6.52718
-4.21492
-2.28464
-0.713166
-2.33843
-1.46403
-0.796151
-0.371275
-0.105758
-0.476665
-0.104124
0.0808744
0.103584
0.0418046
-31.9528
-22.7559
-14.3842
-7.70771
-2.40796
-5023.23
-3167.98
-1884.68
-1068.17
-563.586
-1593.57
-934.983
-567.174
-309.5
-119.661
-1562.8
-972.935
-580.286
-308.759
-113.746
-781.979
-450.272
-269.823
-144.52
-48.5372
-154.105
-105.601
-65.047
-34.5404
-10.9829
-953.135
-627.753
-373.527
-194.458
-63.4401
-61.1894
-40.6044
-24.5029
-12.8787
-4.09396
128.861
87.1002
52.4878
27.0615
8.23539
6.67249
6.30796
4.65598
2.67106
0.826107
-2652.39
-1691.9
-1014.94
-578.942
-303.686
-1252.04
-776.124
-464.402
-246.562
-88.5221
-486.318
-330.106
-202.006
-106.931
-34.2743
-310.595
-211.2
-129.208
-68.1832
-21.6237
-825.47
-549.016
-331.073
-173.6
-55.9805
-434.412
-296.923
-181.819
-95.7213
-29.906
-146.141
-99.6759
-61.0048
-32.1256
-10.0823
-219.762
-153.209
-95.2103
-50.4957
-15.761
33.5604
24.5414
15.7669
8.47938
2.61943
-26.853
-18.316
-11.15
-5.82951
-1.80925
-200.515
-138.068
-85.1125
-45.0097
-14.1327
-163.052
-113.364
-70.3517
-37.3137
-11.6762
-2805.93
-1551.2
-931.708
-524.796
-260.772
-1093.51
-669.517
-387.015
-201.817
-69.5751
-1673.34
-1039.9
-602.015
-316.712
-112.519
-687.471
-433.606
-251.751
-131.326
-44.3884
-768.572
-510.464
-307.268
-160.877
-51.1085
-1528.83
-934.112
-553.549
-290.181
-96.6562
-279.388
-193.154
-119.288
-63.0553
-19.7013
-23.0837
-15.7385
-9.56066
-4.98269
-1.54047
-278.229
-190.167
-116.522
-61.398
-19.2615
-8.97004
-28.2816
-55.8343
-97.809
-159.737
-247.494
-37589.7
-33292.8
-29715.3
-33933.6
-27487.9
-21435.8
-23066.1
-16966.9
-35254.4
-32834.7
-32477.8
-32168.6
-28545.8
-24119.4
-30882.2
-31601.3
-28281.1
-24231.2
-27415.1
-23606.6
-19476.9
-19509.5
-15047.5
-32247
-30801.1
-29680.6
-28855.2
-25583
-23156.8
-26092.5
-25267.9
-23086.4
-19181
-21171.7
-19779.5
-16619.5
-16121.3
-13091
-27320.2
-27313.9
-25289.6
-25340
-21790.7
-19571.5
-22524
-17860.2
-16664.1
-13338.1
-14362.9
-14658.5
-12749.1
-11679.9
-9930.05
-20324
-21592.5
-18990.3
-20219.4
-16718.1
-14824.5
-17730.8
-11357.8
-10730.3
-8371.17
-8896.65
-9614.83
-8427.45
-7494.35
-6480.43
-13326.7
-14094.2
-12540.6
-13199.6
-11218.2
-9925.49
-11697.7
-4050.56
-3852.7
-2970.72
-3136.3
-3494.73
-3127.03
-2693.54
-2365.71
-4838.42
-5214.32
-4541.79
-4739.14
-4123.19
-3679.41
-4291.72
-11917.7
-11441.5
-19095.5
-20843
-10569.8
-8983.66
-16305.9
-12608
-7555.39
-4591.01
-7505.98
-4792.87
-7297.76
-7019.96
-5150.59
-11568.7
-10767.1
-16919.3
-18671.6
-9677.03
-8351.51
-14300.8
-11540
-7455.94
-3776.43
-7283.73
-4049.77
-6488.97
-6286.84
-4532.84
-10063.5
-9362.97
-13984.3
-15253.6
-8425.34
-7351.14
-12044.5
-9916.71
-5935.77
-3308.77
-5813.4
-3604.26
-5159.35
-5116.89
-3931.34
-7468.59
-6981.82
-9971.54
-10714.1
-6310.86
-5515.66
-8803.7
-7439.07
-4759.54
-2515.22
-4610.62
-2726.6
-4100.09
-4003.68
-2962.62
-4749.23
-4462.95
-6261.92
-6663.49
-4001.44
-3448.62
-5618.85
-4786.71
-3009.16
-1598.89
-2919.78
-1747.55
-2609.19
-2514.39
-1881.52
-1682.33
-1585.35
-2214.52
-2344.6
-1423.2
-1226.74
-2005.15
-1726.39
-1015.16
-563.3
-1012.28
-613.603
-926.418
-886.153
-658.577
12585.4
40128.3
10238.9
41637
7378.9
41709.1
10799.2
59871.4
13062.3
81127.4
13470.5
61798
13479.5
52837
14116.4
47205.1
8384.18
5387.41
22796.3
13620.1
7840.87
4042.91
23160.3
11124.1
10152.1
8118.72
31727.1
24456.6
7685.85
6315.9
31579.7
25073
18157.8
7844.01
15594.6
7120.95
7925.09
17845.4
55878.7
14710.7
20256.5
6220.63
67358.5
17727
17525.4
5324.66
42669.4
13018.6
21714.4
7293.72
39461.9
12342.3
15190.9
7524.5
19047.7
7765.88
16513.8
8870.03
18714.9
7558.61
19569.8
11551.1
15741.5
7322.7
22214.6
8456.6
7521.47
2780.26
21135.8
14268
12637.4
8619.71
18951.5
14515.1
10314.6
7747.71
13960.1
9569.59
20936.6
14255.8
7981.53
5398.63
3558.59
2793.08
6352.62
4774.59
2701.55
2505.43
8947.19
5844.3
4223.91
2696.14
13958.7
8300.57
11356
15006.6
19811.2
15207.4
16857
25451.7
8894.71
4648.07
6489.96
8525.15
4165.13
1933.73
2621.83
3046.42
21441.7
37027.6
14233.6
41909.8
24290.8
35287.5
17238.1
43088.3
26199.9
30587
21478.4
40950.1
21160.2
19727.3
20257.1
21144.6
24202
18200.4
22246.3
27058.2
31825.4
49413
15486.8
15607.5
16489.7
20838.3
34979.8
41274.6
33643.3
48034.9
41722.6
36974.9
31186
46764.9
40338.7
30757.3
27459.1
42941.7
38156.8
12573.4
8917.2
16284.5
13230.6
21236.3
18435.8
26397.6
24025.9
38576.6
36029.5
11538.2
9424.49
14584.1
14153.6
18323.1
19273.1
23611.1
25285.7
33391.6
35062.9
11812.9
7886.34
7339.92
7272.16
12072.1
11413
7645.9
9645.44
7999.05
7951.68
12803.7
9025.74
2149.49
4451.85
521.89
1258.49
3558.46
6058.08
855.222
1772.8
2036.64
4715.93
455.504
1334.48
9423.59
7477.02
12368.4
6542.82
15530.7
10746.2
20402.5
12256.7
3251.03
3886.87
6210.88
2915.6
2512.52
2559.96
3593.67
2317.52
24409.1
13388.6
4057.6
27753.9
14450.2
4429.08
23044.9
12963.2
4162.23
26776.3
14154.1
4321.8
20316
11377.8
3500.69
25376.2
13680.9
4196.27
5728.26
3176.29
947.794
9814.63
5819.09
1818.51
14242
8483.57
2667.3
18677.2
10731.9
3290.52
24602.6
13562.4
4231.76
6560.58
3663.96
1214.39
10342
6669.75
2335.17
14433.6
9286.11
3161.26
19172.5
11819.5
3887.87
24888.6
13880.3
4481.17
418.872
1945.59
3100.31
4080.23
3193.55
3025.55
7613.44
6556.33
508.224
583.811
540.958
604.658
338.384
863.215
658.104
1168.43
2417.98
1204.23
3194.39
1868.21
1403.66
2375.07
3517.92
-44.8205
8096.01
1236.81
-2925.87
-866.353
992.067
60.8651
-0.861256
-522.986
5240.04
1674.96
1350.66
602.717
5419.15
1721.81
1746.13
741.294
5584.02
1833.67
2453.78
1092.59
1525.63
650.191
-43.0963
43.5412
11364
8937.18
5156.57
4547.27
15145.4
12746.7
7397.6
6319.51
3494.04
3080.39
7873.01
5605.52
2725.42
2532.88
951.834
1288.18
4245.31
3654.42
1732.81
1898.09
1652.47
1706.83
397.827
898.087
2291.76
938.09
1949.09
785.678
3955.18
1348.27
3150.95
1183.47
1012.21
531.004
1082.19
422.376
106.677
120.545
545.564
159.221
5643.31
2680.77
1924.23
1378.08
5783.66
2943.14
1918.51
1390.37
6491.95
3552.15
1979.19
1449.06
12110
16212.4
8742.53
4365.84
1417.33
14025.1
10327.7
7469.55
4603.59
1673.01
13401.7
9595.4
5965.13
3350.37
1166.1
1359.8
689.554
885.478
567.717
1633.83
822.369
971.266
628.523
2185.39
1156.55
1132.75
751.178
9551.38
5804.69
6919.26
3873.19
4119.59
2485.37
2763.03
1647.61
1184.91
866.935
8053.14
5937.83
5592.75
3893.03
3612.65
2480.13
2193.22
1536.74
883.265
805.194
5150.91
2931.02
3159.63
1728.32
8378.5
5336.3
5350.44
3725.72
1941.14
1025.62
3046.97
1779.29
2709.23
1173.05
641.87
292.743
3601.69
2314.89
835.726
624.394
1801.95
707.842
447.513
177.536
1022.46
677.625
419.314
442.964
1593.63
1038.83
579.62
570.762
1005.24
459.082
292.249
290.134
172.998
62.9125
-155.444
-25.6302
320.363
110.498
27.4032
279.019
72.6106
17.0224
401.072
144.156
37.7002
317.5
86.6382
20.9704
553.416
207.977
52.8027
388.238
109.859
25.9245
3269.65
1646.62
463.822
1965.83
884.467
245.76
1260.45
527.527
144.84
796.719
303.531
75.8116
461.907
130.486
28.2792
3831.31
1817.06
542.438
2342.08
987.758
273.319
1448.63
581.511
154.341
875.444
326.806
81.7243
510.628
134.636
30.8335
401.103
86.8387
15.819
2.13331
164.135
36.4305
6.9657
1.10499
411.903
90.365
17.2401
2.78759
190.238
42.8973
10.696
2.59754
424.183
93.7575
20.769
4.46594
276.351
63.4902
10.3521
1.33536
128.934
32.6686
0.137117
-1.55831
31.0015
12.8667
1.33419
0.0743413
283.504
67.3104
10.9956
0.213772
200.608
46.3663
11.137
1.47631
378.278
85.8387
18.2717
3.07139
289.817
64.6157
15.5672
1.92136
172.059
43.2671
7.38197
0.546264
119.212
28.9143
7.54057
1.40364
58.3748
17.0963
3.45903
0.781012
40.7188
11.1908
3.36473
0.929377
470.073
102.975
19.8063
2.6636
389.373
88.5783
21.8669
3.53927
462.136
101.175
19.4959
2.53969