/*--------------------------------*- C++ -*----------------------------------*\
  =========                 |
  \\      /  F ield         | OpenFOAM: The Open Source CFD Toolbox
   \\    /   O peration     | Website:  https://openfoam.org
    \\  /    A nd           | Version:  11
     \\/     M anipulation  |
\*---------------------------------------------------------------------------*/
FoamFile
{
    format      ascii;
    class       volScalarField;
    location    "0.3";
    object      gradTy;
}
// * * * * * * * * * * * * * * * * * * * * * * * * * * * * * * * * * * * * * //

dimensions      [0 -1 0 1 0 0 0];

internalField   nonuniform List<scalar> 
5712
(
16646.4
9566.42
25812
17344.2
28224.6
21352
41660
55237.7
55959.3
72246.7
37421.9
33526.6
23726.8
19531.3
12370.5
8446.15
24402
22329.6
21904.2
23903.5
32091.7
25516.6
40087.4
28717.3
11372.5
8287.77
6552.95
5325.57
12546.2
10854.4
7995.99
7293.22
27559.9
26454.2
24805.8
17763.3
18519.1
15855.8
14219.5
16750
22165.1
22586
52860.2
55197.7
33125
34979
24687.6
20552.5
23225.4
15345.7
11126
12016.5
11910.2
20119.7
6306.42
8736.34
15846.2
26240.8
9792.67
12904.4
16082.2
34485.3
11542.5
22693.6
4044.62
13329.5
3352.97
9934.28
18225.9
22226.7
20494.8
23015
20452.6
19166.9
22627.3
19633.4
19912.2
27776.4
19069.5
26493.1
20860.2
23356.1
21145.2
23467.7
23896.8
19775.7
24237.8
19683.5
18768.7
28414.1
18296
28715
30150.3
42215.3
37883.1
65523
31709.1
49583.6
37031.5
71810.5
28751.8
36731.9
38337.6
62824.6
28611.3
34119.5
39003
62498.3
12544
16887.9
32776
59476.9
14767.1
17071
40552.1
65037.6
17016.1
16929
49117.1
68629.4
26694.2
22393.7
28669.1
33966.9
61817.1
21471.4
25413.4
28401.5
29315.2
72127.8
19813.1
23378.4
26084.1
34512.8
82033.5
3673.57
4220.79
7428
20860.5
5094.13
5471
9931.32
21900.5
7014.23
5336.85
12912.1
23113.3
18568.6
14655.3
20831.2
16118.1
23256.2
16577.3
20158.3
14663.6
15846.2
25143.2
17649.8
13961.8
21361.1
17408.9
22998.6
18092.9
23391.4
18281.8
16376.9
24321.1
21788.8
22225.8
21586.7
22840.3
18024.7
16569.8
17642.9
17029
23761.7
22487.2
24030.8
22089.2
21211.1
22891.1
21147
22940
17070.3
17365.9
16950.1
17378.3
23407.4
22081.9
23397.5
22033.2
24080.2
21834.3
16218.1
20679.7
24451.9
21678.5
16060.3
21087.3
23941.3
21398.4
16560.1
20614.7
23808.9
20965
17026.5
20474.8
2196.48
953.716
424.444
1113.71
411.101
270.448
3125.72
1048.87
490.427
1995.32
1002.71
472.351
2929.7
1220.37
724.638
3302.29
1578.11
865.589
9649.98
5081.67
2798.61
10705.2
5813.39
3285.89
9317.28
4939.16
2844.09
8109.64
3871.02
2099.78
5030.01
1958.8
933.786
9579.42
5130.75
2715.85
11915.1
6191.09
3215.41
11030.3
5158.77
2523.65
8865.63
3721.55
1767.21
5275
1867.56
775.19
28142.1
24862.3
33010.8
26620
35122.2
27107.2
46210.9
30777.7
18551.8
15821.9
18930.5
14964.1
21371.3
17163.2
21925.3
16058.8
21440.7
19912.5
19476.7
19428.8
22053.2
21252.6
29605.9
30912.5
35402.7
37603.3
22563.4
24313.9
20232.1
20204.3
22106.5
23247
10557.2
4570.12
10202.2
5151.35
11119
4605.5
10475.8
5080.82
11484.3
4609.71
11098.2
5427.11
11147.7
5759.25
11529.3
5623.9
17522.5
12850.1
18615.6
13249.3
21096.1
17007
22895.8
17416.3
16536.7
9449.59
16233.8
9040.62
19909.4
13388.6
20507.2
13203.2
24667.4
17603.4
25091.7
17394.5
17026.6
9581.79
17219.8
9456.23
8757.9
4336.41
6141.91
3147.6
7647.87
3685.68
5725.99
2870.29
9261.88
4707.81
6285.79
3244.52
9339.42
4869.34
6202.46
3211.8
1264.81
509.303
2006.42
915.914
1307.66
596.53
2091.28
1064.21
1569.96
907.127
2291.27
1391.7
7533.43
14017.5
4913.4
4302.45
2564.5
12674.8
7235.08
3434.44
3304.8
1903.37
14559.4
9902.33
6817.11
4469.09
2338.14
183.483
62.5546
438.799
247.902
241.165
79.7853
569.356
331.132
440.76
174.023
824.963
493.626
11308.9
8592.72
6069.19
4302.61
3096.62
2155.6
2316.4
1340.33
1322.4
790.45
11438.3
8157.34
7295.18
4651.7
4695.27
2792.25
2960.25
1671.08
1717.07
1108.16
8314.87
4722.4
8692.76
4949.86
11932
7839.87
12268.4
8249.21
5959.07
3209.53
5552.59
2986.13
8846.04
5012.89
8758.02
4978.93
12332.9
8620.49
12201.1
8592.79
6170.37
3247.55
6109.6
3243.89
3726.26
1943.37
2073.74
1357.86
3464.54
1783.94
1963.98
1231.02
3922.16
2003.67
2123.76
1420.75
3969.16
1993.6
2211.22
1426.98
56.6142
30.3475
15.8427
298.51
82.4717
40.1099
52.2654
37.1249
20.9336
353.756
106.755
55.1155
109.44
77.8159
49.009
455.317
155.903
83.8205
5368.38
2884.09
1650.82
2601.68
1406.76
827.133
1307.46
698.714
421.028
737.869
376.222
218.434
626.046
230.117
121.443
5049.56
2582.63
1350.5
2603.47
1262.5
659.527
1456.28
668.302
348.391
899.193
394.224
195.988
888.312
282.641
132.172
1498.67
435.535
121.579
30.3419
1756.83
501.646
136.594
33.1691
1497
432.818
120.925
30.2012
1783.89
514.456
142.891
35.2998
1482.69
421.201
124.72
32.7025
1830.31
517.86
153.459
40.0814
1999.41
555.659
148.951
35.8739
2009.52
565.695
146.191
34.5309
1520.73
447.906
134.222
35.1366
1127.62
347.181
108.048
29.4768
1284.93
384.917
120.723
33.8572
1031.9
322.06
102.143
28.6696
1666.66
489.832
139.995
34.9528
1174.25
362.315
110.287
29.573
1723.15
509.633
142.628
35.4886
1180.49
369.135
112.111
30.3893
987.343
328.245
100.396
27.0135
575.55
221.066
76.1647
22.2368
982.807
324.646
99.9667
27.116
604.097
226.343
77.2089
22.5203
1011.24
323.599
102.071
28.2116
697.123
244.281
81.3624
23.3759
974.91
305.6
98.2079
28.2939
778.782
256.546
86.4408
24.8187
889.186
287.463
93.7017
27.3455
314.858
151.693
51.1068
11.2091
157.039
119.541
41.4472
9.27408
354.709
162.526
54.0343
12.0279
186.79
129.739
43.8663
9.74865
443.57
183.516
58.2098
12.5188
250.427
148.833
47.5818
10.3267
568.064
210.551
65.3492
14.1355
340.699
172.881
52.9472
11.3488
671.65
236.871
74.1042
16.578
407.63
194.692
58.0334
12.3109
756.629
265.023
78.081
16.6464
454.328
221.437
66.1477
13.8545
727.2
254.36
76.167
16.4324
424.268
210.822
62.4884
13.1145
767.511
269.887
77.1476
15.8048
463.205
227.475
67.2954
13.9736
783.45
273.26
77.9344
15.9368
475.201
230.764
68.2705
14.1679
7.29153
2.07751
0.554959
0.138294
0.0257958
7.66589
2.13848
0.565177
0.140017
0.0260447
7.39231
2.13058
0.567149
0.1409
0.0262364
8.02028
2.21017
0.580153
0.14323
0.0265952
7.78557
2.18903
0.57909
0.143573
0.0267075
8.59324
2.27
0.593211
0.146286
0.0271434
8.32439
2.31955
0.609709
0.150303
0.0278647
8.35337
2.36301
0.624763
0.154277
0.0286107
8.16946
2.26319
0.596392
0.147517
0.0274023
7.63013
2.23168
0.597244
0.148517
0.0276389
8.01433
2.2071
0.584574
0.145055
0.0269885
7.5365
2.19905
0.588573
0.14648
0.0272763
8.1435
2.30328
0.609944
0.150898
0.0280165
7.73967
2.26603
0.607881
0.15124
0.0281438
8.36534
2.34935
0.623163
0.154357
0.0286725
7.93844
2.30825
0.618864
0.154052
0.0286775
6.84201
2.0016
0.542601
0.136296
0.0255177
6.25617
1.93971
0.533909
0.134959
0.0253351
6.95609
2.04293
0.552337
0.138381
0.0258672
6.3803
1.97603
0.542214
0.136708
0.0256247
7.2244
2.10744
0.565976
0.141281
0.0263592
6.66002
2.04464
0.556431
0.139619
0.0261059
7.32652
2.14721
0.576076
0.143643
0.0267789
6.9462
2.11598
0.570835
0.142616
0.0266104
7.33261
2.16862
0.581912
0.145013
0.0270222
23955.4
35601.2
24435.5
35399.3
24992
34899.1
24857.7
34047.6
23375.2
32180.7
21937
24901.2
21814
25904
22178.1
24793.8
22685
25029.3
23453.9
4216.12
1058.35
348.389
98.0536
24903.3
7795.21
2263.05
764.845
218.546
23391.3
4155.24
1041.62
343.102
96.5529
24736.7
7714.28
2243.53
759.18
217.2
23143.8
4102.68
1030.79
340.73
96.0747
24364
7623.21
2226.37
755.984
216.806
22600.3
3975.97
1002.42
333.383
94.3055
23672.6
7458.76
2194.51
750.146
215.797
21602.2
3739.49
949.604
318.428
90.3081
22513
7173.21
2132.28
734.291
211.696
20118.2
3659.08
967.679
328.916
92.6822
19707.7
6623.91
2036.03
715.755
208.037
20476.6
3641.99
947.367
320.351
90.5899
20435.3
6792.95
2058.35
715.883
207.091
20045.7
3693.66
984.644
335.365
94.2306
19546
6580.26
2034.7
719.293
209.759
20075.5
3688.62
984.505
335.525
94.0943
19599.6
6594.57
2041.59
724.038
211.329
40296.5
64406.4
62211
38224.2
19191.8
20829.7
28997.8
31762
25277
30167.9
43393.4
63982.2
56513.2
79489.1
35281.7
42320.3
25959.3
29004.9
13402.3
15202.3
2462.5
1244.66
31.7976
11.2488
9.97506
7.48176
17.5896
2011.12
1388.48
676.479
679.582
371.793
145.034
300.044
142.463
73.7853
86.2242
51.9931
1940.45
553.519
135.904
112.737
244.584
177.735
92.9447
60.486
27.6597
21.0311
61.3843
52.7833
2216.85
927.151
1194.99
460.445
273.118
610.759
89.1221
31.7547
113.906
4277.91
3058.49
2097.67
1472.51
1633.63
2327.36
1882.5
1358.77
971.756
817.922
71.8329
77.5584
68.1799
55.3603
47.2072
25.9559
29.0233
26.4123
22.0891
19.17
23.1402
26.0866
23.9049
20.0869
17.4707
17.4149
19.7534
18.231
15.4276
13.4828
40.341
44.6242
40.1214
33.1638
28.5507
3589.23
2668.97
1797.83
1204.55
1331.07
2468.01
1761.82
1123.26
732.771
626.828
1307.62
1102.73
794.236
552.533
444.163
1197.3
868.855
550.549
352.097
266.823
642.133
468.048
297.688
186.244
135.321
304.378
291.195
228.621
168.718
135.963
597.947
526.443
386.877
271.499
213.657
289.076
261.963
196.343
138.866
108.248
159.854
160.839
131.746
100.397
82.1567
183.181
178.566
142.105
105.566
84.8684
114.173
117.315
97.7882
75.4535
62.0783
3521.99
2701.01
1867.2
1286.97
1420.66
1102.07
978.583
736.821
532.193
436.586
290.408
286.312
231.169
174.84
143.339
243.805
245.259
201.888
155.28
128.595
510.152
485.789
383.456
286.27
235.131
380.928
378.123
308.285
235.835
195.275
204.112
210.644
177.717
139.663
117.096
134.704
141.914
121.628
96.5514
81.1904
62.5292
67.452
59.0167
47.5433
40.2335
47.9242
52.4215
46.5615
38.0455
32.5039
135.107
139.562
117.267
91.4108
75.9621
117.342
123.256
105.299
83.3062
69.8792
3926.71
2906.8
2014.51
1411.32
1561.17
1776.54
1493.32
1101.12
796.867
667.86
2343.84
1988.64
1440.03
1026.98
914.616
941.004
871.934
679.636
506.081
419.113
576.019
558.585
448.201
339.568
280.953
1223.96
1100.95
839.294
612.03
504.403
195.815
202.096
170.308
133.581
111.786
71.6966
77.2603
67.6714
54.6962
46.4621
247.496
250.887
208.009
161.018
133.851
24844.9
17387.5
25066
19070.7
30733
50380.2
33159.5
50706.6
24735.9
24367.1
22359.9
24993
25587
22157.1
37512.7
26975.7
21115.2
23043.9
10427.9
10276.6
22501.3
23474.3
11747.8
10810.1
30468.7
30891.6
28084.2
23246.2
30879.7
20293.6
14294.2
16876.1
22653.4
22769.7
53280.3
55509
32693.2
34947.4
26306.7
20952.3
25162.9
15753
12705.1
12437.8
27776
33205.1
11512.2
13534.7
29768.7
37475.7
14168
17004.4
26595.2
43258.7
15405.1
27281.3
4967.85
14953.5
3549.3
10265.2
20846.8
22241
21278.5
23091.6
19364.8
18239.6
21830.4
19155.4
22665.5
28504.2
25783.8
27598.1
21123.5
23413.3
21203
23486.6
23550.6
19555.9
24151.7
19619.7
19811.4
28803.9
18538.8
28833.1
32565.4
45315.1
39161.6
67195.2
35444.8
54515
39061.5
74659.6
29959.4
38299.7
39011.8
63706.6
28953.9
34574.3
39205.9
62774.2
38330.8
40120.1
52864.8
81558
37240.1
36395
56351.9
82017.6
34451.8
32126.9
60060.3
79930
20281.4
17384.5
26554.5
36163.9
67730.6
16128.3
17579.8
26853.1
30865.6
78792.9
16650.9
20705.8
25686.4
36645
86205.1
14222.6
10691
16635.2
25391.4
16097
12241.7
17116.5
25588.6
18399.4
13051.8
17753.5
25500.9
13807.2
10743.5
15140.2
11883.4
22329.9
16738.6
21544.4
16096
18283.8
26185.1
14848.7
12059.8
18674.6
15698.9
22191.6
17731.6
24696.3
19324.8
17709.8
24774
20938.9
21310.7
21309.1
22441.7
16780.1
15533.9
17087.2
16509.9
23940
22516.9
24084.2
21970.9
21106.3
22728.8
21121.3
22896.8
16827.8
17124.6
16881.6
17309.9
23515.7
22122.6
23428.4
22045.7
24610.6
22170.2
16715.9
21069.5
25291.9
22204.3
16932.7
21716
24218.3
21581.1
16818.7
20823
23895.1
21021.9
17112.8
20541.1
8383.55
8467.75
4504.54
3679.32
9597.94
8553.58
5153.92
4459.05
9091.66
7171.3
5811.66
4925.59
8236.64
6260.66
9496.54
7733.11
11631.8
8908.95
10897.6
7624.15
7356.15
4784.06
9236.21
6677.67
12025.2
8675.06
12124.5
8164.8
10871.7
6658.22
6515.21
3211.45
21218.8
18112.1
30308.4
23356.6
26942.3
21287.7
43209.6
28094.7
17713.9
11993.2
21216.4
13708.8
17298
12369.8
21302.8
14220.4
19111.8
14801.1
16506.3
13580.2
15436.6
18517.8
28099.2
30486.8
34355.4
37352.3
21270.3
23918.2
18802
19812.5
20468
22688.2
7827.97
4320.9
8755.36
4684.28
8210.69
4299.36
9109.05
4633.52
8522.67
4266.31
9728.3
4952.82
10257.6
5393.53
11202.3
5489.84
13486.4
11445.1
16581
12371
17452.2
15176.3
21001.8
16415.1
14447
8840.5
12286.2
8242.75
18904.8
12925.3
20214.2
13062.8
23823.4
17117.2
24864.6
17252.9
15921.9
9229.02
16876.4
9345.47
7933.24
4100.93
5829.11
3050.79
6796.28
3632.1
5447.98
2850.53
8750.11
4507.4
6077.16
3165.91
9176.82
4795.39
6134.09
3184.21
6503.81
5430.12
3558.1
2747.73
6699.98
5641.02
3471.95
2730.05
6794.48
5553.49
3386.38
2786.08
10151.1
13827.9
9392.65
5543.9
3111.53
12166.3
10089.3
9441.09
5170.01
2784.5
13783.6
10282.1
7516.23
5018.12
2610.05
4232.8
3004.2
2112.34
1594.36
4388.94
3099.27
2153.95
1635.08
4268.53
2998.21
2200.92
1632.6
10587.3
7915.02
8176.83
5950.35
6720.27
5017.72
4150.11
3016.7
2206.25
1606.79
10786.5
7694.38
7958.37
5253.52
5701.75
3687.47
3761.45
2404.44
2086.4
1472.4
7992.64
4751.09
8317.65
4820.1
11146.5
7436.8
11743.1
7953.93
5748.3
3175.44
5530.16
3181.08
8617.04
4907.51
8684.7
4942.66
12063.3
8452.38
12120.3
8541.82
6011.04
3187.43
6055.73
3220.39
3644.28
1957.63
2057.36
1379.44
3563.35
1983.72
2051.66
1371.5
3835.99
1977.25
2091.83
1411.62
3936.99
1981.17
2196.71
1420.62
2294.96
1873.48
1885.88
1487.24
2397.75
1923.46
1838.8
1415.53
2261.23
1810.77
1738.78
1286.38
5774.15
4297.25
4172.48
3018.85
3594.08
2721.1
2182.8
1573.44
1602.6
1069.04
5170.72
3563.48
3280.29
2243.68
2286.61
1618.77
1572.83
1064.7
1425.7
811.76
1604.68
487.393
138.169
34.6607
1746.08
528.381
148.571
36.765
1580.05
478.423
135.504
33.9247
1750.72
531.901
152.16
38.2635
1538.3
458.104
137.285
36.0384
1781.32
527.919
160.468
42.5684
1937.96
555.849
152.193
37.1875
1983.07
564.514
147.04
34.9307
1504.84
456.832
139.547
37.0197
1123.07
353.366
111.539
30.7496
1337.23
412.105
130.874
36.8827
1062.46
340.174
108.875
30.7009
1635.46
490.507
142.283
35.9269
1162.55
363.509
111.833
30.2442
1709.21
508.992
143.219
35.7842
1175.33
369.117
112.526
30.5923
1355.54
420.496
124.125
32.5679
1059.95
340.23
105.832
28.9281
1318.92
409.612
121.788
32.177
1047.36
336.305
104.536
28.6841
1281.25
393.788
120.84
32.656
1061.23
334.716
104.197
28.4957
1145.88
357.642
113.07
32.0045
1027.83
325.573
104.687
28.9382
991.589
324.133
104.855
30.2542
785.575
275.718
78.8237
15.9686
534.349
240.242
69.8404
14.4216
796.944
277.945
80.0355
16.6166
546.927
242.236
70.4389
14.5914
827.4
280.752
79.9249
16.2804
573.66
244.546
70.1253
14.4347
822.258
280.545
82.3904
17.2244
571.599
244.386
70.5769
14.6551
791.964
276.77
85.5425
18.9552
523.544
239.436
70.1953
14.7233
762.518
271.745
81.3401
17.485
465.207
230.28
69.6105
14.679
767.282
272.564
82.6112
17.8907
470.018
233.174
69.4726
14.6142
763.771
271.668
78.5423
16.1954
462.385
229.933
68.6647
14.3381
780.905
273.484
78.298
16.0473
473.8
231.124
68.6047
14.2658
8.38222
2.38795
0.636419
0.158158
0.0294465
8.62255
2.42295
0.641543
0.158879
0.0295318
8.3344
2.40218
0.639173
0.158593
0.0295026
8.81405
2.44789
0.644574
0.159267
0.0295752
8.6054
2.41952
0.640392
0.158721
0.0295163
9.24308
2.45932
0.644785
0.159214
0.0295572
8.71806
2.44128
0.64372
0.15897
0.029498
8.48665
2.40618
0.63711
0.157468
0.0292168
8.70897
2.42719
0.641146
0.158771
0.0295099
8.06491
2.36772
0.634898
0.158073
0.0294384
8.76136
2.41206
0.638998
0.158549
0.0294981
8.15665
2.37311
0.635332
0.158166
0.0294606
8.45899
2.40651
0.639109
0.158379
0.0294323
7.98859
2.35035
0.632097
0.15752
0.0293397
8.46554
2.3827
0.632839
0.156882
0.0291547
8.01659
2.33572
0.626956
0.156184
0.0290872
8.16359
2.34732
0.63
0.157229
0.0293344
7.85792
2.31517
0.625509
0.156595
0.0292579
8.15567
2.3567
0.632269
0.15764
0.0293919
7.85759
2.32332
0.627592
0.156988
0.0293143
8.2635
2.37588
0.634942
0.158044
0.0294448
7.91814
2.34424
0.631152
0.157556
0.0293897
8.21813
2.37505
0.635065
0.158103
0.0294556
7.98472
2.36319
0.633805
0.157944
0.0294384
8.12517
2.37048
0.634912
0.158112
0.0294576
27177.4
36317.8
27149.5
36031.6
27062
35446.2
26126.6
34388.5
24136.2
32344.9
22256.9
25211.1
22342.5
26360.7
22349
24961
22737.8
25079.4
24472.8
4344.02
1079.8
352.186
98.5913
25473.7
7987.58
2305.99
772.969
219.72
24290.7
4269.63
1061.02
346.546
97.0397
25242.2
7887.62
2282.54
766.542
218.252
23845.3
4195.11
1046.85
343.599
96.478
24766.2
7766.63
2259.23
762.199
217.684
23087.1
4043.3
1014.45
335.554
94.6115
23968.5
7569.04
2220.24
755.037
216.487
21934.9
3785.12
957.688
319.878
90.5113
22741.8
7256.2
2151.45
737.917
212.215
20276.4
3679.88
971.114
329.501
92.7639
19879.5
6665.44
2044.38
717.241
208.244
20724.2
3674.21
952.772
321.289
90.7193
20686.7
6856.48
2071.67
718.297
207.429
20132.3
3705.19
986.544
335.686
94.2755
19639.4
6602.63
2039.1
720.073
209.871
20102.9
3692.2
985.089
335.619
94.1053
19628.7
6601.52
2042.93
724.273
211.362
39917.7
64473.1
61975.5
36921.4
25554.3
33943.4
24030.8
33671.8
32104.3
59570.5
35205.2
61567.4
0.0572826
0.120048
0.310276
0.823666
2.19873
5.88063
0.110464
0.222916
0.550033
1.37758
3.38101
8.05005
0.0308052
0.020393
0.0715312
0.0528807
0.203684
0.166169
0.585096
0.521093
1.64247
1.52201
4.37262
3.69611
15.6551
40.0194
96.6907
219.364
415.836
573.172
18.4225
39.8471
80.2511
146.548
229.57
289.939
0.13809
0.167009
0.166266
0.151681
0.139564
0.287902
0.344839
0.339268
0.305816
0.279069
0.739828
0.876747
0.851614
0.757853
0.685499
1.95117
2.28502
2.18896
1.92155
1.722
5.1665
5.96396
5.62063
4.85705
4.30687
13.6741
15.4992
14.3181
12.1448
10.6382
0.265043
0.317765
0.313019
0.282517
0.258036
0.531822
0.630957
0.613766
0.547021
0.495312
1.30405
1.52957
1.468
1.29105
1.15842
3.24407
3.75921
3.55798
3.08712
2.74484
7.90046
9.03039
8.41715
7.19829
6.33905
18.6396
20.9697
19.2131
16.1741
14.099
0.074552
0.0908516
0.0913184
0.0841304
0.0779344
0.0495098
0.0607009
0.0614784
0.0570822
0.0531619
0.172191
0.20775
0.206269
0.187665
0.172342
0.127666
0.15489
0.15485
0.141871
0.130909
0.48751
0.581949
0.570355
0.512146
0.466085
0.398856
0.478679
0.472191
0.426735
0.390045
1.39158
1.64193
1.58702
1.40542
1.2669
1.24287
1.47404
1.43323
1.27647
1.15499
3.87681
4.51126
4.29014
3.73905
3.33415
3.60379
4.21638
4.03315
3.53362
3.16155
10.2222
11.6928
10.9058
9.32959
8.21627
8.6842
10.0172
9.42311
8.12096
7.18436
35.9049
39.7548
35.8379
29.7413
25.6961
90.1654
96.9425
84.9114
68.7826
58.5963
212.855
220.545
186.835
147.463
123.984
467.87
461.773
376.154
288.786
240.335
852.408
792.443
619.234
463.828
384.918
1151.31
1037.43
793.787
587.257
487.009
42.1919
46.5894
41.8677
34.6472
29.882
90.0638
97.2928
85.557
69.522
59.3226
178.52
187.935
161.35
128.647
108.67
319.901
326.915
273.592
214.098
179.329
491.381
487.261
398.269
306.83
255.651
613.659
598.138
482.562
368.681
306.454
0.0571221
0.119409
0.308561
0.819285
2.18708
5.84696
0.110117
0.221517
0.546169
1.36748
3.35471
7.98284
0.0307301
0.0203553
0.0712595
0.0527918
0.203098
0.166404
0.584424
0.524877
1.64354
1.54373
4.3911
3.84721
15.5332
39.5948
95.4851
216.545
411.922
571.254
18.2547
39.4577
79.4592
145.235
228.104
289.276
0.137738
0.166672
0.166051
0.15161
0.139586
0.286527
0.343575
0.338547
0.305712
0.279352
0.736248
0.873728
0.850337
0.758432
0.687211
1.94242
2.27862
2.18795
1.92593
1.72958
5.14438
5.95065
5.62402
4.87616
4.33502
13.6125
15.4675
14.3374
12.2098
10.7288
0.264279
0.317014
0.312508
0.282294
0.257996
0.528762
0.628006
0.611829
0.546271
0.495311
1.29569
1.52172
1.46315
1.28958
1.15905
3.22249
3.73953
3.54659
3.08478
2.74804
7.84483
8.98071
8.38962
7.19421
6.3491
18.4983
20.8449
19.1445
16.1637
14.1232
0.0743931
0.0907112
0.0912484
0.0841395
0.0779936
0.0494343
0.0606463
0.0614738
0.0571304
0.0532429
0.171639
0.207333
0.206193
0.187947
0.172842
0.127533
0.154924
0.155151
0.142423
0.131608
0.486496
0.58166
0.571308
0.51427
0.468891
0.399773
0.480618
0.475222
0.430618
0.394376
1.39144
1.64515
1.59456
1.41658
1.28005
1.25343
1.49011
1.45347
1.29915
1.1787
3.88502
4.53366
4.32769
3.78794
3.38881
3.66186
4.29921
4.13107
3.63793
3.26753
10.2868
11.8134
11.0749
9.52921
8.42962
9.06269
10.5044
9.94268
8.62838
7.6743
35.6742
39.6095
35.845
29.8842
25.9141
89.3264
96.3076
84.6924
68.9392
58.9604
210.445
218.605
185.899
147.432
124.452
462.198
456.984
373.339
287.77
240.331
844.495
785.521
614.651
461.438
383.79
1147.41
1033.97
791.387
585.874
486.216
41.84
46.2775
41.6897
34.6058
29.9211
89.2468
96.5605
85.1147
69.3729
59.3447
176.861
186.437
160.402
128.249
108.592
317.157
324.414
271.93
213.276
178.995
488.319
484.435
396.303
305.731
255.06
612.274
596.848
481.639
368.138
306.133
2450.24
1239.3
31.5778
11.2687
11.0794
7.88413
17.9104
1897.78
1353.23
664.043
748.514
156.754
318.929
84.9883
111.062
63.5903
1859.37
539.281
139.752
113.178
241.202
175.189
91.6375
60.5835
32.4987
23.3367
65.7022
54.2044
2181.66
915.313
1161.29
452.118
267.885
595.199
88.3169
32.2147
113.187
4254.64
3039.87
2085.73
1466.1
1629.86
2316.85
1873.6
1352.79
968.42
816.079
71.5329
77.6616
68.7764
56.3196
48.342
26.0672
29.2913
26.8292
22.6025
19.726
25.7999
29.3043
27.1227
23.048
20.2178
18.4136
21.0236
19.5699
16.7187
14.7163
41.242
45.9786
41.758
34.9028
30.3003
3473.98
2723.11
1928.14
1354.07
1505.61
2523.21
1993.41
1414.44
1009.74
882.304
1312.76
1160.57
882.176
646.212
534.999
1454.9
1212.62
877.67
635.472
512.783
335.902
334.408
274.937
212.441
176.541
654.811
611.325
480.18
359.691
294.674
187.528
195.17
166.201
131.712
110.782
242.935
249.263
209.473
164.182
137.139
142.122
150.847
130.582
104.748
88.644
3403.25
2662.76
1885.9
1333.85
1488.67
1084.71
984.22
761.055
565.332
472.62
302.342
305.328
253.794
197.821
165.615
246.783
252.317
211.948
166.587
140.14
507.631
492.281
397.499
304.026
254.043
377.299
378.279
312.496
242.626
203.169
201.791
209.435
178.08
141.238
119.278
135.604
144.299
125.288
100.896
85.7654
74.0875
81.2158
72.505
59.6899
51.3324
53.5117
59.2421
53.4277
44.3837
38.3876
146.302
154.495
133.307
106.82
90.53
121.443
129.497
112.723
90.9822
77.4421
3862.31
2858.7
1986.51
1399.46
1558.72
1753.72
1474.78
1089.51
791.308
665.75
2285.85
1955.02
1431.46
1035.17
933.038
925.235
860.154
674.003
505.456
421.202
566.571
552.802
447.431
342.56
285.83
1198.63
1090.14
843.621
625.975
522.747
194.858
202.816
172.83
137.276
115.987
73.1237
79.6177
70.6604
57.9371
49.743
247.355
253.661
213.469
167.985
141.367
190.559
230.245
299.236
365.293
367.94
171.936
23699.5
23525.7
24256.9
26042.7
20955
20623.2
21576.3
19071.1
21520.3
34676.4
21453.9
34136
24697.8
20220.5
40893.5
21247.5
20851.4
21335.1
22667
18139.3
17898.2
19254.1
17330.6
20490.3
41242.4
20206.4
38984.3
23956.2
26231.1
42760
17904.2
17339.8
17282.2
18137.1
15226.9
15718.2
15887.1
14848.5
22097.5
32194.5
22404.8
31011.6
24485.9
28292.8
34119.9
14229.2
13741.1
12899.2
13418.8
12387.3
13105.3
11905.8
11392.8
17605.6
24304.3
17821.5
22422.2
18761.2
21279.3
24329
10882.2
10481.3
9546.33
9878.77
10036.9
10786.9
8859.97
8645.19
14026.3
16141.2
14232.9
14230.6
13938.1
13506.9
15440.2
8944.51
8649.5
7211.83
7447.8
8149.49
8378.33
6801.1
6579.22
11356.4
10837.5
11229.7
9652.66
10527.5
8558.54
10849.9
20053.8
18431.7
23179.2
25510.7
16684.8
15381.8
19904.2
17336.7
14956.7
8337.29
14531.9
8381.25
11957.1
10376.5
10831.5
17336.5
16123.3
19609.2
21244
14883.9
13946.1
17271.9
15171.1
12109
6623.5
11787.7
6700.15
9335.26
7650.32
8142.39
13495
12733
14979.4
15900.3
11913.8
11121.6
13622.5
12191
9283.88
5019.24
8775.91
4879.09
7016.98
5121.97
6259.62
9324.77
8886.85
10628.7
11132.5
8325.39
7634.54
9945.23
8889.8
6258.44
3472.65
5939.78
3423.8
4796.26
3682.33
4463.47
6489.77
6224.45
7639.87
7941.47
5704.05
5154.91
7278.13
6535.53
4267.04
2770.08
4045.38
2739.26
3469.58
3026.4
3420.39
4530.5
4350.62
5665.56
5869.24
4065.43
3851.65
5382.95
4968.12
3093.03
2296.74
2984.18
2313.35
2674.72
2664.95
2866.96
16426.2
9279.56
25794.4
17348.7
28251.5
21324.6
41694.7
55249.8
56026.8
72274.1
37492.8
33521
23742.9
19576.6
12045.8
8076.83
24401.8
22329.7
21896.9
23901.7
32106.1
25521.8
40094.4
28720.5
11156.3
8112.58
6338.74
5164.22
12499.2
10837.8
7988.36
7315.52
27547.7
26442.7
24800.4
17761.2
18510.4
15859.5
14218.9
16751.3
22165.5
22587.3
52867.5
55203
33127.6
34980.9
24687.8
20554.4
23226.6
15347.2
11127.1
12018
11697.5
19826.5
6139.73
8530.5
15851.6
26267.9
9820.69
12940.1
16085.4
34499.1
11554.4
22710.3
4047.1
13335.9
3353.76
9936.6
18225.4
22226.8
20495
23015.3
20454.4
19167.4
22628.7
19633.8
19914.2
27777.5
19068.4
26493.7
20860.7
23356.5
21145.7
23468.2
23897.7
19775.8
24238.1
19683.4
18769.9
28415.4
18297.1
28716.3
30153.5
42222.8
37885.8
65527.4
31711.5
49591.8
37034.2
71816
28754.6
36737.1
38340
62828.2
28614.1
34123.6
39005.3
62501.7
12375
16732.1
32409.1
59101.7
14777.6
17076.3
40585.7
65079.9
17021.1
16932.8
49132.3
68645.4
26692.4
22393.1
28667.1
33968.6
61825.7
21470.5
25411.3
28398.3
29315.8
72137.1
19812.8
23377.6
26083.8
34515.3
82040.5
3612.87
4184.01
7269.25
20694.3
5101.27
5479.39
9956.78
21921.5
7017.88
5338.56
12920.1
23118
18567.4
14654.1
20829.2
16116.7
23253.6
16575.8
20159.2
14664.5
15850.2
25146
17649
13960.9
21360
17408
22998.3
18092.7
23393.1
18283
16379.2
24322.8
21788.5
22225.1
21586.6
22839.8
18024.3
16568.9
17642.6
17028.3
23762.2
22487.4
24031.1
22089.4
21211.1
22890.7
21147
22939.7
17070
17365.3
16949.8
17377.7
23407.9
22082.2
23398.1
22033.5
24081.4
21835.2
16219.3
20680.8
24453.3
21679.6
16062
21088.6
23942.4
21399.1
16561.1
20615.5
23810
20965.7
17027.5
20475.6
2175.68
942.586
418.059
1115.02
409.063
267.679
3138.87
1054.32
491.475
2005.61
1007.32
473.475
2929.93
1220.68
724.965
3302.93
1579.09
866.315
9649.17
5081.36
2798.53
10704.6
5813.3
3286.01
9317.12
4939.51
2844.49
8110.09
3871.52
2100.27
5030.54
1959.29
934.147
9578.66
5130.41
2715.75
11914.4
6190.88
3215.44
11030.1
5158.86
2523.83
8866.09
3721.83
1767.47
5275.48
1867.83
775.362
28146
24862.7
33013.1
26620.3
35138.2
27112.6
46224.4
30782.2
18354.8
15752.9
18686.1
14880.3
21330.9
17130
21881.6
16026.8
21433.4
19905.6
19475.7
19425.8
22032.8
21234.4
29605.9
30911.7
35405.9
37604.6
22560.4
24311.8
20230.2
20202.4
22097.1
23242.1
10549.6
4573.79
10188.5
5155.93
11098.8
4599.71
10458.2
5075.67
11470.3
4604.48
11085.9
5421.61
11140.4
5755.08
11525.4
5621.33
17519.6
12849.1
18613.5
13248.2
21097.4
17007.1
22896.8
17416.1
16529.8
9447.78
16225.2
9038.5
19907.9
13387.6
20505.7
13202.1
24667.9
17602.9
25091.4
17393.8
17022.2
9580.26
17216.9
9454.84
8754.03
4333.63
6139.88
3146.24
7643.8
3682.96
5723.67
2868.77
9258.95
4705.48
6284.12
3243.38
9337.23
4867.58
6201.07
3210.85
1260.72
505.16
2001.51
911.025
1306.93
596.523
2090.03
1064.02
1568.59
906.557
2289.29
1390.77
7533.82
14017.9
4912.87
4300.61
2562.79
12674.9
7235.17
3434.39
3303.5
1902.19
14559.4
9901.79
6815.7
4467.25
2336.81
180.96
60.7253
435.478
245.87
241.327
79.6774
569.237
330.98
440.602
174.022
824.537
493.425
11308.4
8592.09
6068.78
4302.17
3096.3
2155.27
2315.62
1339.95
1321.71
790.104
11437.9
8156.79
7294.67
4651.25
4694.42
2791.75
2959.22
1670.58
1716.22
1107.67
8314.19
4721.89
8692.09
4949.38
11931.7
7839.44
12268
8248.81
5958.1
3208.98
5551.54
2985.55
8845.38
5012.45
8757.29
4978.47
12332.4
8620.09
12200.5
8592.36
6169.52
3247.07
6108.79
3243.43
3725.29
1942.88
2072.98
1357.36
3463.44
1783.42
1963.13
1230.5
3921.32
2003.25
2123.12
1420.31
3968.4
1993.22
2210.65
1426.6
55.419
29.7583
15.5249
296.539
81.582
39.5552
52.0603
37.0648
20.9287
353.524
106.737
55.1194
109.44
77.8077
49.0027
455.13
155.863
83.805
5367.88
2883.84
1650.71
2601.37
1406.59
827.044
1307.2
698.588
420.96
737.673
376.131
218.386
625.761
230.043
121.411
5049.09
2582.39
1350.39
2603.15
1262.33
659.446
1456
668.178
348.33
898.926
394.12
195.943
887.885
282.538
132.133
1499.46
435.547
121.517
30.3197
1757.36
501.374
136.465
33.1365
1495.87
432.572
120.861
30.1871
1782.84
514.228
142.832
35.2852
1481.41
420.906
124.641
32.6832
1828.88
517.533
153.371
40.0594
1998.05
555.322
148.866
35.8541
2008.53
565.418
146.12
34.5143
1519.72
447.613
134.136
35.1148
1127.02
346.977
107.982
29.4582
1283.99
384.643
120.64
33.8348
1031.27
321.845
102.074
28.6502
1665.73
489.551
139.914
34.9327
1173.72
362.13
110.226
29.5561
1722.4
509.395
142.559
35.4713
1180.04
368.975
112.058
30.3744
987.299
328.289
100.387
27.003
574.855
220.951
76.1436
22.2407
982.167
324.461
99.9133
27.1027
603.785
226.226
77.1716
22.5096
1010.45
323.373
102.005
28.1943
696.634
244.116
81.3099
23.3613
974.204
305.378
98.1378
28.2743
778.233
256.362
86.3797
24.8015
888.601
287.26
93.6352
27.3261
314.437
151.62
51.1064
11.2163
156.675
119.361
41.4024
9.26623
354.547
162.447
54.0057
12.0208
186.707
129.694
43.85
9.74508
443.294
183.396
58.1716
12.5105
250.288
148.739
47.5515
10.3201
567.693
210.4
65.3014
14.1252
340.498
172.759
52.908
11.3403
671.235
236.704
74.0499
16.5657
407.397
194.555
57.9896
12.3014
756.272
264.873
78.0322
16.6356
454.13
221.31
66.1056
13.8452
726.8
254.196
76.1143
16.4207
424.05
210.685
62.4439
13.1048
767.204
269.755
77.1054
15.7958
463.035
227.364
67.2585
13.9655
783.185
273.147
77.8983
15.9291
475.054
230.669
68.2391
14.161
7.28743
2.07572
0.554449
0.13817
0.0257735
7.65839
2.13563
0.564454
0.139849
0.0260149
7.38932
2.12974
0.566927
0.140845
0.0262263
8.01703
2.2093
0.579916
0.143172
0.0265845
7.78135
2.18793
0.57881
0.143506
0.0266952
8.5888
2.26889
0.592925
0.146216
0.0271308
8.31989
2.31832
0.609394
0.150228
0.0278509
8.34937
2.36189
0.62447
0.154205
0.0285976
8.16458
2.26192
0.59607
0.14744
0.0273883
7.62523
2.23033
0.596899
0.148435
0.0276239
8.00936
2.20586
0.584262
0.14498
0.0269749
7.53144
2.19771
0.588234
0.146399
0.0272616
8.13883
2.302
0.609614
0.150818
0.028002
7.7351
2.26474
0.607543
0.151159
0.0281289
8.36123
2.34821
0.622865
0.154284
0.0286592
7.93444
2.3071
0.618562
0.153978
0.028664
6.83894
2.00021
0.54218
0.136192
0.0254991
6.25544
1.93847
0.533525
0.134865
0.0253185
6.953
2.04217
0.552142
0.138332
0.0258581
6.37766
1.97545
0.542052
0.136666
0.0256165
7.22025
2.10636
0.565706
0.141216
0.0263473
6.6561
2.04363
0.556178
0.139558
0.0260946
7.32172
2.14596
0.575763
0.143568
0.0267654
6.94156
2.11476
0.570531
0.142544
0.0265972
7.32756
2.1673
0.581583
0.144934
0.027008
23870
35514.7
24440.9
35404.9
24995.6
34901.7
24860
34049.4
23376.8
32182.1
21937.9
24902.1
21815.1
25905.1
22178.9
24794.5
22685.7
25030
23449
4189.95
1049.95
345.503
97.2434
24888.3
7781.58
2257.62
762.848
217.971
23384.8