/*--------------------------------*- C++ -*----------------------------------*\
  =========                 |
  \\      /  F ield         | OpenFOAM: The Open Source CFD Toolbox
   \\    /   O peration     | Website:  https://openfoam.org
    \\  /    A nd           | Version:  11
     \\/     M anipulation  |
\*---------------------------------------------------------------------------*/
FoamFile
{
    format      ascii;
    class       volScalarField;
    location    "0.3";
    object      gradTx;
}
// * * * * * * * * * * * * * * * * * * * * * * * * * * * * * * * * * * * * * //

dimensions      [0 -1 0 1 0 0 0];

internalField   nonuniform List<scalar> 
5712
(
-10885.5
-14075.4
-24668.5
-37293.3
-38148
-65779.7
-28067.7
-70774.2
-22141.4
-48619.2
-33148.5
-51309.1
-28998.6
-39602.1
-13027.6
-15356.4
-26354.7
-29775.9
-33073.3
-32987
-24311.2
-28237.3
-35587.6
-31368.9
-9623.52
-7921.06
-12006.9
-8780.19
-22736.4
-19475.9
-38297.3
-29603.5
-29208.4
-30287.7
-34834.7
-34190.9
-13740.3
-10414.6
-65122.7
-86721.7
-43565.9
-53063.9
-81889.8
-106457
-43286
-49764.3
-51197.9
-71996.1
-46767.2
-60884.2
-28603.1
-44747.2
-5985.58
-2107.38
-6291.51
-2353.42
-17899.8
-7561.09
-24229.4
-9328.43
-18427.2
-7309.17
-18622
-6374.52
-30791.4
-10389.6
-39659.6
-14101.2
-36699.6
-19656.7
-35143.2
-21123.2
-30774.4
-19602.2
-28673.1
-19882.9
-31438.4
-20262.9
-30979.8
-17915.7
-37303.2
-23044.2
-37916.2
-23224.2
-31340.4
-20992.7
-32118.2
-20951.4
-34244.3
-22633.2
-35634.5
-23214.1
-33968
-16675.6
-19444.5
-26143.8
-33349.2
-18249.1
-17232
-26208.1
-36319.7
-16479.4
-21530.5
-26445.6
-38357.5
-16834
-23035.2
-27415.3
-7514.98
-8028.29
-2687.05
-5607.07
-21306.6
-21981.6
-9142.28
-17079.6
-26564.6
-27786
-15346.5
-26268
-12051.7
926.762
-19285.6
-29181.4
-19429.3
1915.55
-4810.7
-16786.8
-31739.6
-29749.1
-12326.6
-17952.7
-19853.2
-21069.4
-35690.1
-6188.5
-4203.21
-3843.49
-3301.59
-16721.8
-11539.5
-11744.1
-9689.82
-19784.1
-13292.7
-15918.6
-12216.9
-3895.25
-4725.46
-9910.32
-9509.34
-18062.5
-14180.8
-23155.8
-16834.1
-21661.4
-15922.2
-8846.99
-6640.74
-13763.3
-7538.83
-16150.7
-8533.72
-17813.2
-9350.31
-25096.2
-13425.4
-12976.2
-3476.78
-12548.6
-8792.61
-12440.5
-11424.1
-13983
-14721.6
-13404.1
-9288.18
-14694.5
-2771.96
-11649.7
-13668.6
-11278.5
-14717.4
-13909.4
-18285.7
-14017.8
-19599.4
-12335.9
-14701.9
-11883.7
-15669.4
-18689.7
-10051.3
-27822.3
-9709.92
-17626.8
-2702.81
-24782.4
-2633.54
-18339.4
-13882.3
-28699.3
-11392.4
-16637.6
-15899.7
-26705.5
-13989
-2541.14
-1624.64
-909.834
-2012.88
-1330.2
-801.088
-7070.44
-3646.19
-1831.51
-5524.2
-2767.62
-1404.36
-7316.97
-3760.47
-2287.87
-6700.06
-3166.48
-1885.96
-2918.51
-1323.09
-826.739
-6450.86
-2526.27
-1213.15
-8357.49
-3366.53
-1466.53
-9578.05
-4289.31
-2245.19
-9205.33
-3701.18
-1672.64
-7998.04
-4002.12
-1900.5
-6992.66
-3521.73
-1486.03
-8442.18
-3951.46
-1530.42
-9166.73
-4113.25
-1544.93
-12185.7
-4800.19
-1485.69
-12147.1
-15270.7
-10397.8
-12676.8
-16148.6
-21432.9
-15557.8
-20480.1
184.838
-408.204
617.335
-94.9459
-2580.22
-2382.85
-1210.52
-634.528
-1511.2
-2927.23
-9585.54
-12681.4
-5033.28
-3346.76
-12530.5
-12938.6
-22190.4
-24836.6
-83.5193
3583.32
-8259.06
-7872.33
-6287.83
-4750.88
-808.957
-400.028
-684.188
-366.575
-1927.31
-306.944
-438.978
81.9589
-7561.52
-1530.11
-5761.14
-1407.08
-7695.47
-1957.5
-9120.44
-2233.9
-10906.9
-10972.4
-10174.2
-10845.5
-18708.9
-16576.8
-18213.8
-15920.9
-6031.5
-7027.63
-6792.59
-6893.24
-10757.3
-10643.5
-11600.3
-10605.2
-19331.8
-15880.1
-20230.5
-15796.9
-6062.04
-6890.34
-6377.36
-6867.94
-222.23
-479.877
-3979.85
-1377.26
-90.734
-326.83
-3618.77
-1191.87
-450.952
-597.662
-4067.04
-1490.9
-592.633
-636.298
-3997.39
-1487.74
208.874
231.865
-132.915
-11.8619
1101.56
943.971
-28.0155
122.163
-130.902
433.465
-711.366
-310.642
6255.87
8121.43
2613.16
1644.45
183.079
8815.61
6876.97
1865.7
2322.43
365.841
-10129.2
-6974.31
-4788.41
-3227.11
-1103.63
141.439
82.6381
14.5239
18.1222
524.189
316.832
68.9462
61.0101
533.724
460.527
-86.79
-8.15463
2999.59
610.032
3759.03
1491.44
960.33
395.199
943.293
515.14
5.65824
-54.0329
-3913.7
-1953.28
-1775.42
-149.621
-1117.16
-103.933
-772.278
-143.839
-264.52
-130.771
-4280.12
-2729.2
-7111.02
-3515.28
-7474.12
-5251.34
-10630.4
-6605.87
-4325.4
-2037.04
-2470.08
-1632.94
-8087.27
-3216.26
-8618.72
-3486.95
-11577.4
-6821.98
-12083.5
-7290.62
-5086.71
-1817.67
-5485.34
-2002.98
-2314.88
-1209.57
-712.089
-709.409
-1506
-1036
-594.08
-647.113
-2607.6
-1188.74
-767.525
-805.164
-3079.27
-1259.95
-1107.4
-813.301
36.9631
19.2803
14.8538
2.89372
5.73461
4.62933
150.043
84.3904
55.7432
12.2298
18.9716
14.1182
261.161
149.668
90.6315
-32.1662
20.7017
19.2006
3.75567
58.1084
-17.3532
426.908
329.263
200.452
209.91
182.44
126.697
265.669
173.608
110.593
-91.4302
-0.0188442
8.09815
-1998.13
-817.85
-323.079
-227.301
22.8292
74.8387
-143.931
46.3699
72.268
-92.6981
38.2061
49.0811
-169.753
-3.93083
11.6422
-10.9595
-3.04311
-0.829962
-0.0885245
30.1711
7.05467
2.65693
0.936196
-40.9754
-11.0278
0.225021
0.951397
29.6868
5.97189
6.83504
2.84569
-116.751
-26.2095
-0.28548
2.28684
-70.5545
-15.0137
-0.221567
0.827397
-81.9947
-14.8029
-3.33132
-0.829214
-107.977
-21.2055
-1.65988
0.348451
-286.25
-61.6145
-13.2145
-2.48233
-322.225
-68.0778
-16.8772
-2.27557
-209.101
-44.1226
-7.49999
0.26945
-265.834
-55.2359
-15.7705
-2.79584
-300.05
-64.2795
-10.6584
-1.00191
-354.724
-76.0955
-17.8936
-2.01582
-304.621
-66.2439
-9.78211
-0.360907
-368.168
-80.2739
-18.9099
-2.31712
-8.52388
-2.78611
-0.596312
0.00710762
2.28146
-0.0608484
-0.597985
-0.05164
-11.1382
-5.0955
-0.147976
0.552053
17.0631
2.21956
-0.813781
0.0444275
-116.652
-28.391
-5.17959
-0.182142
-62.5497
-15.5884
-4.65518
-0.339523
-68.4022
-14.6591
-1.82557
0.821134
-29.7968
-7.18944
-4.36574
-0.532127
-225.533
-46.9635
-13.7552
-1.57255
6.44553
1.45585
0.15862
0.131403
14.6804
3.69857
0.766838
0.180025
10.5163
2.31881
-0.454315
0.127444
39.1265
9.77808
1.75844
0.404716
-7.66798
-1.34308
-1.88222
-0.0604154
52.209
13.1799
2.30139
0.509874
-44.3817
-7.46507
-3.53995
-0.212905
40.5876
12.2401
1.9414
0.411748
-116.418
-20.3045
-8.13491
-1.22164
5.48914
6.85462
0.412626
0.102105
-230.607
-42.4961
-12.514
-2.01733
-74.7866
-11.0148
-2.92367
-0.664071
-184.405
-32.188
-10.9308
-1.92521
-46.6252
-3.74589
-1.45755
-0.304934
-261.024
-49.8917
-13.8392
-2.27608
-92.7708
-15.6248
-3.65809
-0.88172
-276.757
-54.3426
-14.7657
-2.63553
-104.183
-18.5556
-4.2
-1.03444
0.0535209
0.0163282
0.00403924
0.000927416
0.000238167
0.138054
0.0303726
0.0068232
0.00150862
0.000380624
0.123987
0.0334796
0.00847727
0.00199082
0.000518951
0.233555
0.0549014
0.0131723
0.00301987
0.000778573
0.121837
0.0348961
0.0094501
0.00229513
0.000609611
0.217936
0.0625143
0.0158924
0.00373256
0.000975418
0.0315514
0.0206727
0.00619698
0.00155565
0.000422217
-0.00861379
0.00355208
0.00202264
0.000635198
0.000193124
0.00259383
0.025624
0.00831101
0.00212293
0.000577788
-0.044424
0.00467679
0.00258168
0.000739514
0.000211094
0.163296
0.0491559
0.0124975
0.00291935
0.000759078
-0.00190273
0.0111985
0.00359619
0.000906779
0.000244369
-0.0757257
0.0023403
0.00305187
0.000987642
0.000297528
-0.0495126
0.000208249
0.00151371
0.000515121
0.000157867
-0.102554
-0.0102841
-9.74272e-05
0.000296596
0.000127555
-0.0743131
-0.00726342
-0.000354369
9.0096e-05
4.96934e-05
0.0374649
0.0131121
0.00329364
0.000748387
0.000189527
0.0582562
0.0152288
0.0034146
0.000726897
0.000176216
0.134553
0.0356988
0.00842501
0.00187904
0.000472896
0.176884
0.0409472
0.0088415
0.00186397
0.00045173
0.0881624
0.0324315
0.00854035
0.00201188
0.000523324
0.239752
0.0529789
0.0113895
0.002423
0.00059405
0.200375
0.0493981
0.0114172
0.00254302
0.000643315
0.203082
0.0414926
0.00872585
0.00184754
0.000453175
0.100301
0.0262383
0.0061387
0.00137351
0.000348499
-126.083
-441.892
-122.846
-1087.41
165.491
-1448.52
907.589
-1310.67
1485.11
-183.166
-1010.96
-2637.95
719.132
-1.20756
-1586.2
-3625.41
-2000.66
-3906.35
-1961.65
-686.131
-331.132
-216.867
-172.03
-581.184
-358.694
-127.004
-86.1241
-66.4193
-6071.11
-2113.62
-1022.62
-669.544
-531.425
-1472.17
-678.008
-356.405
-230.115
-179.602
-10313.2
-3603.28
-1748.65
-1146.25
-909.302
-2567.36
-1186.48
-608.755
-395.288
-305.914
-14113.9
-4956.39
-2417.28
-1587.45
-1259.96
-3394.55
-1594.46
-821.326
-533.252
-412.832
-18168.7
-6443.44
-3164.3
-2085.47
-1660.05
-4266.1
-2051.09
-1066.14
-698.042
-545.286
-22697.7
-8328.88
-4140.39
-2738.64
-2184.19
-6215.38
-2781.04
-1417.73
-926.737
-724.988
-20710.2
-7524.41
-3718.12
-2453.34
-1955.45
-5132.37
-2403.92
-1237
-809.499
-633.942
-23695.7
-8748.11
-4362.45
-2888.36
-2302.99
-6798.68
-2983.69
-1512.87
-988.784
-774.572
-24782.5
-9110.04
-4550.59
-3013.91
-2402.79
-7029.13
-3098.7
-1577.41
-1014.23
-800.169
-1433.66
-11168.3
-10021.5
-3388.97
1886.76
3187.11
8103.03
12478.9
844.728
8999.24
-5069.54
188.458
1347.99
4876.19
11014
16739.3
16638.2
21790.6
6840.8
9123.78
-12625.1
-7544.98
-412.236
-144.521
-87.1904
-88.5579
-173.305
-7125.03
-4329.1
-3730.48
-2661.71
-1249.46
-942.826
-1771.24
-608.563
-481.092
-450.076
-285.31
-11536.4
-3676.96
-484.854
-981.136
-2154.76
-1099.34
-951.944
-529.838
-177.797
-220.391
-422.488
-474.233
-12054.1
-6169.12
-5731.88
-3221.13
-2247.44
-3322.32
-576.579
-389.2
-1013.91
-7111.19
-4679.74
-2777.74
-1584.43
-778.5
-4138.02
-2364.34
-1381.63
-731.881
-263.885
-317.48
-222.014
-138.082
-73.1283
-22.7587
-114.351
-82.1025
-52.2073
-28.0491
-8.75761
-68.8864
-49.292
-31.1848
-16.6638
-5.1812
-70.9741
-51.6092
-33.1626
-17.935
-5.61007
-136.176
-96.9443
-61.1073
-32.5968
-10.137
-3656.58
-2106.32
-1174.87
-662.584
-386.729
-1806.71
-961.041
-463.51
-241.348
-109.978
-2016.02
-1069.27
-589.442
-301.06
-110.817
-1112.82
-569.413
-275.545
-130.13
-48.3645
-485.643
-238.238
-110.636
-48.4897
-15.3544
-636.975
-394.647
-221.463
-109.283
-33.3696
-1054.3
-596.065
-325.008
-159.762
-50.5463
-344.626
-183.712
-94.3678
-43.6685
-12.9909
-343.089
-221.989
-128.67
-64.666
-19.6642
-308.611
-192.441
-107.721
-52.5769
-15.7013
-206.791
-135.571
-79.2649
-39.958
-12.0947
-6216.99
-3656.34
-2129.21
-1180.41
-629.163
-2245.33
-1339.14
-769.414
-395.926
-140.123
-347.26
-226.69
-132.954
-67.6731
-20.9246
-712.657
-473.035
-282.167
-145.699
-45.6003
-1498.74
-968.226
-568.637
-292.589
-94.3881
-802.914
-536.476
-322.251
-167.39
-52.5215
-707.793
-480.214
-291.842
-152.574
-47.6911
-400.668
-275.046
-168.297
-88.1365
-27.3583
-134.407
-91.7749
-55.6152
-28.7883
-8.82688
-171.001
-120.106
-74.7593
-39.5053
-12.2377
-312.228
-209.13
-124.996
-64.2686
-19.769
-357.071
-243.937
-148.531
-77.4675
-24.0001
-6730.95
-4251.46
-2531.91
-1399.05
-685.767
-3576.96
-2111.55
-1236.69
-652.116
-240.478
-3492.55
-2228.51
-1272.41
-656.556
-234.573
-2136.87
-1330.57
-781.936
-406.021
-135.807
-1589
-1042.1
-619.13
-320.893
-103.029
-2186.28
-1356.9
-793.927
-410.417
-135.633
-425.598
-285.997
-172.129
-89.3129
-27.8146
-301.794
-211.979
-132.08
-69.9184
-21.6955
-754.657
-511.23
-309.86
-161.531
-50.3007
-9725.4
-19853
-20308.7
-56384.1
-18722.8
-70229
-10441.1
-25136.4
-19593.7
-15739.1
-33394.5
-28323.9
-17940.6
-15884.1
-35000
-27047.8
-7535.1
-5933.9
-14838.3
-10863.5
-17019
-13299.4
-45906.9
-35709.9
-27068.2
-19761.4
-29944.1
-18445.5
-2852.1
-7882.09
-68702.2
-88283.5
-42365.9
-52964.3
-84892.9
-107793
-41932.1
-49469.8
-54107.9
-73520.2
-45686.4
-60990.7
-31896.4
-46384.3
-4194.56
-1250.74
-7254.01
-2568.57
-14109
-6729.04
-28052.8
-10556.4
-7816.04
-4509
-15762.6
-5387.3
-31110.8
-10370.6
-40145
-14242.5
-24434.7
-14333.7
-30455.7
-18443.7
-19198.6
-14006.8
-24078.8
-17206.1
-28038.2
-18064.6
-21792.2
-13721.8
-35574.1
-21857.6
-37508.8
-22904
-29528.6
-19803.4
-31637.4
-20629
-33115.6
-21642.9
-35401.1
-22944.3
-32625
-16374.4
-18023.4
-25810.5
-28823.7
-17087.8
-14595
-25555.6
-36179.1
-16488.3
-20889.3
-26296.8
-38431.9
-16874.1
-22867.4
-27377.3
-2536.58
-2512.81
-890.146
-3558.22
-10038
-10754.2
-6937.41
-14594
-8403.69
-9713.78
-11909.9
-22436.8
-14764.8
-8870.23
-15939.5
-21659.7
-17651.2
-5805.74
-8390.97
-12334.8
-23234.9
-27823.4
-14961.7
-16408.8
-15675.5
-16632
-34346.3
-2767.69
-1896.71
-1956.68
-1958.95
-9151.61
-6434.49
-8822.9
-7273.74
-4865.13
-2420.46
-11704.7
-8692.38
-7986.72
-7194.66
-8852.2
-7336.02
-11068.5
-7450.08
-14997.4
-10541.2
-19147
-13642.9
-10943.3
-7948.75
-12161.4
-6299.32
-12347.7
-5853.7
-14103.3
-6796.53
-23806.6
-12092.8
-11110.9
-3055.57
-11070.2
-8192.09
-11745.2
-11425.9
-12795.3
-14183
-11979
-8709.07
-12490.6
-2158.3
-10847.4
-13279.5
-11035.8
-14595.3
-13153
-17827.4
-13776.9
-19435.9
-11606.2
-14399.8
-11668.6
-15580
-17772.2
-9679.37
-27587.3
-9578.17
-15968.2
-2314.96
-24371.2
-2767.18
-17894.7
-13696.5
-28598.5
-11321.8
-16497.5
-15848.3
-26675.8
-13979.6
-1547.69
-1344.6
-1482.93
-1559.56
-4554.15
-3376.34
-4898.67
-4281.19
-1257.08
-1774.09
-5866.63
-5362.94
-5807.21
-4002.54
-6136.56
-3781.11
-5326.75
-3428.76
-7650.79
-5441.55
-10257.7
-6631.45
-9391.56
-5417.41
-5938.68
-2881.89
-6550.44
-2744.8
-7223.25
-2623.83
-9741.56
-2319.06
-6201.43
-9061.05
-5549.97
-10410
-11190.9
-12559.2
-13434.4
-17372.6
-857.934
-407.687
-393.281
-171.012
-3201.72
-1621.67
-2304.44
-600.263
-1000.56
-1633.42
-7610.54
-7408.69
-2754.25
-2288.74
-11059.7
-12434.6
-20466.1
-24284.9
431.031
3757.64
-6983.42
-7375.62
-5474.08
-4466.52
-601.36
-400.393
-574.374
-365.992
-1172.16
-364.621
-264.473
24.2878
-5263.62
-1486.5
-4750.15
-1280.34
-6815.98
-1797.55
-8735.39
-2151.35
-5737.1
-8502.73
-8007.9
-9399.02
-10405
-12133.3
-14775
-13730.3
-4795.7
-6224.23
-3908.38
-5822.11
-9635.61
-9914.39
-11242.1
-10391.3
-17769.7
-14864.2
-19767.8
-15513.2
-5365.83
-6436.7
-6133.53
-6726.25
-33.1935
-458.277
-3686.48
-1343.32
5.0587
-408.573
-3440.38
-1222.59
-249.357
-557.018
-3855.31
-1451.07
-493.041
-613.783
-3925.63
-1471.86
-545.5
-490.568
-357.326
-283.647
-1166.39
-991.44
-393.232
-290.253
-4744.26
-3803.77
-1248.66
-1013.22
-2747.84
-3845.91
-2698.61
296.969
-179.34
-301.572
-949.758
-2954.2
1237.85
69.1077
-13787.9
-9540.55
-6422.82
-3859.34
-1326.34
-391.423
-250.431
-228.485
-180.801
-827.897
-531.44
-291.127
-269.716
-3047.06
-2157.56
-843.383
-730.973
-3480.92
-3945.02
-1832.8
-2515.02
-2728.36
-2253.93
-278.376
-390.24
-356.021
-430.812
-7659.06
-4618.63
-4932.11
-2587.97
-3106.61
-1640.97
-1750.99
-902.523
-538.312
-383.049
-4928.22
-3572.9
-6809.44
-3585.03
-7849.82
-6112.99
-9962.58
-6548.69
-4253.39
-2124.48
-3013.59
-2202.1
-7735.7
-3152.84
-8485.31
-3444.52
-11009.2
-6637.66
-11886.8
-7205.6
-4911.22
-1806.22
-5410.62
-1984.23
-2336.69
-1270.95
-758.893
-755.745
-1855.43
-1354.87
-740.943
-788.652
-2550.79
-1193.46
-771.699
-815.973
-3047.09
-1252.82
-1102.61
-812.987
-145.142
-117.157
-119.544
-100.531
-405.287
-381.535
-191.152
-166.084
-1556.77
-1166.95
-410.959
-186.16
-3650.59
-2430.45
-2484.53
-1497.38
-1639.96
-1047.14
-448.294
-346.422
-353.556
-166.518
-3818.69
-2040.42
-1789.71
-929.613
-1125.47
-588.037
-583.789
-282.562
-325.765
-27.2993
-25.9996
-7.14738
-1.89656
-0.330802
4.65848
-0.138106
0.934515
0.570398
-77.0106
-20.9167
-1.88472
0.553631
-11.863
-6.89521
3.83116
2.21875
-159.229
-38.525
-2.66499
1.99918
-102.173
-27.5455
-3.79928
-0.105687
-91.9365
-20.7968
-5.29788
-1.35547
-108.283
-23.0504
-2.3666
0.149149
-293.429
-67.1386
-15.2501
-3.15004
-326.001
-71.1253
-17.9791
-2.53333
-249.525
-56.1082
-10.5018
-0.440583
-283.837
-61.0165
-17.4319
-3.10734
-299.461
-67.213
-11.8213
-1.32735
-353.432
-77.4905
-18.5647
-2.2092
-303.187
-67.1621
-10.1948
-0.47992
-367.095
-80.6554
-19.1298
-2.38263
-27.7021
-7.15263
-1.50613
-0.14669
-20.6268
-4.84423
-1.73405
-0.247718
-66.9118
-17.4096
-2.53783
0.145251
-47.0074
-11.206
-3.88423
-0.488451
-175.031
-41.1695
-7.5651
-0.550729
-143.099
-32.0618
-8.3684
-0.964432
-164.384
-35.7566
-6.07971
0.0797866
-120.743
-25.4375
-8.16018
-0.972809
-274.411
-57.6442
-16.1844
-1.75523
-13.5868
-2.96752
-0.760349
-0.0493881
-3.46888
-0.703941
-0.147749
-0.035065
-43.3958
-9.38018
-3.08813
-0.428846
-12.586
-2.49888
-0.858251
-0.203672
-87.2104
-17.863
-5.52655
-0.829213
-31.1379
-5.73813
-1.55168
-0.362816
-137.671
-26.9126
-7.62233
-0.985492
-60.5928
-10.3005
-2.46806
-0.558784
-185.314
-35.7475
-11.7873
-2.04748
-80.479
-13.2988
-3.73006
-0.849641
-250.041
-49.1474
-14.4543
-2.53733
-95.9456
-17.4966
-4.5363
-1.08936
-230.692
-44.5568
-14.0768
-2.70011
-95.346
-16.6196
-4.33499
-1.01733
-266.113
-52.6077
-14.7809
-2.54795
-99.1262
-18.1039
-4.35051
-1.0736
-277.175
-54.9634
-15.0194
-2.71413
-105.011
-19.0562
-4.36343
-1.08403
-0.00453096
0.000581748
0.00017909
3.72665e-05
6.78372e-06
0.038556
0.00435276
0.000535662
6.20413e-05
3.51343e-06
-0.00475186
-0.00187944
-0.000196316
-1.27422e-05
-3.41359e-06
0.0285643
0.000234029
-0.00020517
-8.83475e-05
-3.86074e-05
-0.0293409
-0.00761937
-0.00101206
-0.000126935
-2.35376e-05
-0.0510096
-0.00825595
-0.00138822
-0.000289293
-8.52768e-05
-0.0943138
-0.0124296
-0.00198988
-0.000375893
-9.36177e-05
-0.0660773
-0.0120745
-0.00192523
-0.00031094
-6.27538e-05
-0.16857
-0.017732
-0.0021471
-0.000297881
-5.85287e-05
-0.109031
-0.0116944
-0.00136963
-0.00017636
-2.99524e-05
-0.0622077
-0.00709208
-0.000838104
-0.000133553
-3.77001e-05
-0.0775093
-0.00725315
-0.000762
-8.88599e-05
-1.4897e-05
-0.167021
-0.0213792
-0.00276148
-0.000374621
-6.41237e-05
-0.0990646
-0.012716
-0.00165721
-0.00022996
-4.06942e-05
-0.139607
-0.0202779
-0.00260192
-0.000299485
-3.26767e-05
-0.0895805
-0.0113929
-0.00139101
-0.000157024
-1.6854e-05
-0.00811376
0.000593064
0.000273258
6.20342e-05
1.3241e-05
0.00607824
0.00287961
0.00062786
0.000114584
2.19817e-05
0.0108107
0.00308295
0.000701481
0.00013541
2.53732e-05
0.0375566
0.00850179
0.00155213
0.000261229
4.67121e-05
-0.0458814
-0.00425794
-0.000270043
6.64816e-06
5.57051e-06
0.050568
0.00922723
0.00153282
0.000242652
3.91674e-05
-0.0010016
0.00139263
0.000347493
5.0269e-05
-2.52403e-07
0.0513403
0.00734561
0.00108237
0.00015531
2.10599e-05
-0.0155894
-0.000359603
5.27566e-05
2.77683e-06
-6.20324e-06
131.661
-259.461
486.423
-648.424
904.759
-910.949
1537.4
-846.867
1873
62.8667
-872.776
-2554.16
908.128
15.9338
-1514.81
-3577.4
-1981.28
-3892.76
-1973.76
-690.692
-332
-216.959
-172.002
-550.974
-357.006
-126.238
-86.0053
-66.4151
-6119.26
-2128.62
-1025.66
-670.072
-531.538
-1397.44
-666.673
-354.697
-229.954
-179.707
-10396.2
-3626.92
-1753.51
-1147.21
-909.604
-2479.2
-1173.29
-606.752
-395.084
-305.986
-14218
-4983.22
-2422.6
-1588.41
-1260.21
-3321.82
-1582.83
-819.526
-533.031
-412.832
-18292
-6471.46
-3169.73
-2086.5
-1660.36
-4228.94
-2043.71
-1064.87
-697.887
-545.298
-22783
-8346.32
-4143.57
-2739.22
-2184.34
-6203.38
-2779.48
-1417.5
-926.73
-724.976
-20827.4
-7548.62
-3722.59
-2454.16
-1955.68
-5116.77
-2400.01
-1236.26
-809.394
-633.95
-23745.1
-8758.15
-4364.25
-2888.7
-2303.08
-6793.27
-2983.37
-1512.82
-988.8
-774.591
-24799.9
-9113.59
-4551.3
-3014.11
-2402.91
-7028.32
-3098.89
-1577.51
-1014.28
-800.224
-1171.54
-10878.4
-9160.28
-2695.22
-1969.14
-948.718
-4471.55
-2888.93
-9244.94
-8680.97
-4597.04
-3359.58
-0.74395
-1.89888
-5.3672
-14.414
-36.7417
-88.9516
-0.744815
-2.69266
-8.73794
-24.2795
-59.5784
-130.358
-0.408659
-0.153312
-1.14353
-0.583824
-3.46876
-2.15148
-9.8594
-7.1522
-24.8704
-18.258
-62.646
-41.3334
-195.318
-386.804
-723.394
-1827.83
-3029.88
-3992.86
-252.786
-432.094
-652.127
-903.303
-1173.95
-1352.61
-0.620873
-0.474107
-0.32041
-0.180588
-0.0577968
-1.57632
-1.19564
-0.802224
-0.449387
-0.143321
-4.42984
-3.33619
-2.22173
-1.23681
-0.393054
-11.8137
-8.8225
-5.8247
-3.21976
-1.01921
-29.8418
-22.0513
-14.4061
-7.89737
-2.48874
-71.3782
-52.034
-33.5575
-18.2176
-5.71337
-0.619362
-0.470833
-0.316668
-0.177749
-0.0567526
-2.22572
-1.67939
-1.12061
-0.624862
-0.198756
-7.17977
-5.3783
-3.56198
-1.97403
-0.625745
-19.8103
-14.7163
-9.66448
-5.3199
-1.68015
-48.2056
-35.4638
-23.069
-12.6049
-3.96557
-104.411
-75.9484
-48.8796
-26.4961
-8.30367
-0.342224
-0.262466
-0.178217
-0.100849
-0.0323518
-0.128627
-0.0988916
-0.0673287
-0.0381873
-0.0122658
-0.952786
-0.726051
-0.489574
-0.275397
-0.0880408
-0.487676
-0.372853
-0.252314
-0.142362
-0.0455873
-2.87405
-2.1749
-1.45568
-0.813747
-0.259211
-1.78764
-1.35759
-0.912043
-0.511422
-0.163182
-8.11323
-6.08809
-4.03904
-2.24144
-0.71105
-5.90287
-4.44498
-2.95926
-1.64676
-0.523164
-20.2877
-15.0652
-9.88857
-5.44034
-1.71762
-14.9531
-11.153
-7.35101
-4.05664
-1.28271
-50.4746
-36.9485
-23.913
-13.0121
-4.08479
-33.4844
-24.648
-16.028
-8.74884
-2.74997
-154.209
-110.506
-70.1787
-37.687
-11.767
-298.704
-209.482
-130.666
-69.3676
-21.6014
-541.996
-370.219
-226.361
-118.866
-37.0979
-1307.68
-864.075
-517.292
-269.553
-85.62
-2025.14
-1286.97
-756.473
-394.028
-130.727
-2566.09
-1599.05
-931.069
-485.401
-165.103
-199.968
-143.545
-91.2934
-49.075
-15.3254
-336.486
-237.78
-149.235
-79.5324
-24.7712
-497.399
-344.819
-213.198
-112.636
-35.062
-668.828
-452.433
-274.916
-144.037
-45.0453
-829.532
-542.764
-323.375
-168.436
-53.6103
-924.008
-591.084
-347.641
-180.564
-58.3194
-0.742252
-1.89231
-5.35155
-14.3835
-36.6904
-88.7688
-0.742362
-2.68137
-8.70209
-24.1779
-59.3022
-129.663
-0.40795
-0.153267
-1.14166
-0.585922
-3.47053
-2.17561
-9.89394
-7.30244
-25.1188
-19.3179
-63.2785
-44.5796
-194.609
-384.817
-718.259
-1807.71
-2996
-3974.64
-251.257
-429.285
-647.732
-896.476
-1165.04
-1348.23
-0.619681
-0.473435
-0.320151
-0.180544
-0.0578033
-1.57193
-1.19344
-0.801665
-0.449559
-0.143473
-4.42065
-3.33316
-2.22282
-1.23906
-0.394098
-11.8011
-8.82581
-5.83696
-3.2318
-1.02407
-29.8397
-22.0897
-14.4622
-7.94418
-2.50668
-71.3495
-52.1296
-33.7085
-18.3451
-5.76237
-0.617641
-0.469862
-0.316288
-0.177682
-0.0567602
-2.21803
-1.67531
-1.11929
-0.624865
-0.198905
-7.15615
-5.36672
-3.55923
-1.97509
-0.626601
-19.7453
-14.6865
-9.65972
-5.32505
-1.68333
-48.0293
-35.3828
-23.0549
-12.6174
-3.97351
-103.962
-75.7322
-48.8274
-26.5131
-8.31803
-0.341759
-0.262247
-0.17818
-0.100887
-0.0323756
-0.128652
-0.0989762
-0.0674395
-0.0382783
-0.0123006
-0.951929
-0.726132
-0.490222
-0.276075
-0.0883201
-0.489858
-0.374967
-0.254103
-0.14356
-0.0460085
-2.87837
-2.18111
-1.46217
-0.818602
-0.261002
-1.80994
-1.37682
-0.92678
-0.520633
-0.16631
-8.15324
-6.12976
-4.07578
-2.26653
-0.71995
-6.03836
-4.55847
-3.04373
-1.69835
-0.540475
-20.5329
-15.2889
-10.0672
-5.55475
-1.75701
-15.8668
-11.8787
-7.863
-4.35635
-1.381
-51.1288
-37.5677
-24.4185
-13.3393
-4.19756
-36.2718
-26.8535
-17.5762
-9.65009
-3.04391
-153.949
-110.614
-70.4688
-37.9542
-11.8721
-297.855
-209.543
-131.191
-69.8893
-21.8106
-539.556
-369.877
-227.125
-119.749
-37.4663
-1296.09
-859.06
-516.295
-270.063
-85.9981
-2003.64
-1275.08
-751.166
-392.294
-130.411
-2554.07
-1591.96
-927.533
-483.971
-164.743
-198.971
-143.044
-91.143
-49.0816
-15.3449
-334.661
-236.852
-148.934
-79.5178
-24.7956
-494.596
-343.416
-212.747
-112.613
-35.0977
-664.481
-450.185
-274.088
-143.886
-45.0567
-823.645
-539.393
-321.792
-167.863
-53.4853
-921.047
-589.314
-346.738
-180.19
-58.2246
-12549.4
-7502.42
-411.453
-145.93
-100.029
-96.8151
-178.903
-7126.23
-5537.74
-3994.13
-3805.69
-1118.25
-2369.62
-651.132
-724.249
-408.884
-11319.7
-3717.31
-548.95
-1019.95
-2170.05
-1105.86
-951.131
-542.24
-220.653
-246.049
-497.875
-503.254
-11827.2
-6075.07
-5643.14
-3173.65
-2229.96
-3286.9
-588.213
-400.221
-1025.93
-7061.6
-4648.78
-2762
-1578.02
-777.157
-4112.62
-2350.69
-1375.05
-729.365
-263.28
-318.205
-223.745
-140.034
-74.5834
-23.2906
-115.915
-83.6507
-53.5007
-28.8942
-9.04981
-79.77
-57.762
-37.024
-20.0104
-6.26303
-78.0289
-57.1588
-37.0355
-20.1783
-6.33951
-141.558
-101.678
-64.7244
-34.8232
-10.8831
-3990.73
-2447.62
-1434.36
-819.48
-456.103
-3140.46
-1992.42
-1169.51
-644.255
-258.594
-2367.61
-1379.3
-810.828
-426.094
-149.735
-2168.69
-1336.07
-784.858
-415.14
-143.665
-798.216
-525.966
-313.592
-161.745
-50.059
-1552.1
-960.381
-564.135
-289.893
-90.9698
-485.575
-330.218
-201.018
-104.93
-32.4535
-537.534
-364.062
-220.884
-115.039
-35.5468
-310.217
-213.873
-131.453
-68.9919
-21.3327
-6252.56
-3773.15
-2248.44
-1263.97
-666.986
-2342.49
-1444.56
-853.929
-447.827
-157.781
-405.272
-273.908
-166.293
-86.8995
-27.1347
-753.853
-510.768
-311.165
-163.395
-51.5077
-1536.37
-1012.96
-607.248
-317.483
-102.99
-815.848
-551.812
-335.773
-176.295
-55.6133
-711.642
-486.739
-298.505
-157.314
-49.3947
-413.971
-287.574
-178.231
-94.3582
-29.4617
-170.673
-119.808
-74.7406
-39.6344
-12.3132
-193.06
-137.523
-86.9154
-46.5322
-14.5207
-377.295
-260.229
-160.233
-84.353
-26.2325
-384.234
-266.97
-165.468
-87.5746
-27.3342
-6599.34
-4180.3
-2500.72
-1390.7
-687.02
-3524.46
-2085.79
-1226.35
-649.581
-240.187
-3501.41
-2268.72
-1319.18
-690.741
-247.957
-2119.12
-1330.7
-789.352
-413.28
-138.768
-1588.96
-1052.1
-631.664
-330.354
-106.555
-2185.74
-1373.66
-814.433
-425.698
-141.418
-439.269
-299.502
-183.103
-96.2691
-30.1814
-312.593
-221.6
-139.486
-74.4932
-23.2321
-770.618
-527.987
-323.932
-170.608
-53.4153
-31.4529
-101.378
-196.164
-328.417
-497.415
-695.19
-4435.31
-11566.2
-10030.4
-3956.09
-14359.8
-13087.1
-12729
-13545.6
-4278.92
-2860.98
-10294.3
-5646.43
-16985.5
-15139.2
-297.591
-3492.91
-9271.57
-7790.7
-3035.61
-11602.3
-10083.3
-9990.87
-10459.9
-3542.78
-1587.79
-9024.38
-2784.81
-12682.1
-9695.22
2514.76
-2354.45
-6390.13
-5152.45
-1967.85
-8193.78
-5320.56
-6912.19
-6759.09
-2522.28
-1521.3
-6080.35
-3042.16
-8655.42
-3598.22
2636.25
-1447.04
-4104.42
-3146.01
-1179.81
-5037.37
-2245.89
-4389.87
-4194.64
-1670.02
-1485.35
-4060.68
-2872.85
-5948.82
-809.609
1855.94
-916.027
-2718.43
-1979.49
-734.357
-2905.66
-1041.69
-2852.63
-2899.35
-1087.4
-1572.88
-2408.4
-2605.08
-4087.6
-95.6987
40.5237
-621.614
-1807.18
-1331.76
-487.57
-1985.58
-1136.27
-1909.12
-2135.08
-669.485
-1216.35
-1446.98
-2229.58
-3721.61
-1295.03
-1255.83
-1528.42
-3681.21
-6488.83
-2580.85
-5499.48
-8717.3
-8874.28
-11577.5
-818.218
-350.544
-3144.67
-1195.74
-1208.34
-6958.05
-2429.22
-1330.26
-3204
-5331.15
-2107.15
-4704.02
-7249.01
-7374.57
-8986.76
-758.444
-195.224
-2996.91
-833.376
-368.556
-6005.38
-1081.19
-1005.1
-2417.11
-3741.93
-1463.25
-3632.78
-5153.49
-5312.52
-6365.51
-554.626
-174.915
-2091.47
-680.734
-366.488
-3604.26
-635.227
-652.659
-1654.61
-2339.3
-904.778
-2506.99
-3264.83
-3543.66
-4155.33
-361.586
-138.731
-1422.45
-521.768
-175.807
-2289.59
-381.803
-418.493
-1086.61
-1482.31
-568.588
-1541.33
-2016.01
-2323.62
-2833.51
-225.237
-160.624
-871.75
-477.259
-136.064
-1475.03
-398.884
-274.207
-665.985
-986.02
-374.727
-992.585
-1594.85
-1538.05
-2085.91
-163.699
-167.931
-537.545
-396.724
-231.994
-1344.27
-575.72
9899.67
12643
24727.1
37425.8
38193.1
65751.5
28080.7
70775.9
22160.8
48625.5
33216.7
51310.5
29038.7
39752.6
11177.2
13072
26373.7
29779.6
33064.1
32981.9
24314.6
28234.8
35583.4
31364.5
8878.29
7361.38
10927
8009.67
22740.8
19435.9
38391.8
29658.3
29164.4
30291.1
34818.6
34189.5
13734.8
10373.1
65130.8
86732
43566.3
53066.6
81898.4
106468
43285.5
49765.3
51204.5
72005.8
46765.4
60888.3
28614.5
44757
5637.28
2020.42
5775.93
2185.31
17847
7531.41
24246.2
9332.25
18414.7
7301.98
18596
6363.97
30792.8
10389.5
39664.9
14102.9
36697.7
19654.7
35139.5
21120.7
30770.3
19599
28669
19879.8
31432.6
20260.1
30976.9
17913.1
37301.5
23042.2
37915.5
23222.3
31338
20990.2
32116.5
20949.1
34242.6
22631.3
35634.5
23212.5
33959.5
16672.6
19441.4
26143
33342.2
18246.1
17228.6
26207
36318.5
16479.1
21528.9
26445.4
38359.1
16834.7
23034.1
27415.2
7068.63
7465.15
2584.68
5271.58
21202.4
21897.7
9087.5
16997.2
26547.3
27767.8
15337.8
26252.6
12050.5
-926.167
19282.8
29173.5
19425.6
-1914.78
4810.19
16784.7
31730.9
29743.3
12324.7
17950.8
19850.2
21064.8
35688.2
5612.23
3763.15
3434.38
2999.07
16800.4
11602.8
11880.6
9768.49
19770.1
13289.4
15911.9
12215.4
3894.98
4724.98
9909.08
9508.18
18059.4
14178.6
23148.1
16830.5
21658.4
15921.7
8845.73
6639.89
13761.6
7537.8
16148
8532.3
17809.7
9348.72
25095.2
13425.3
12974.5
3476.09
12546.8
8791.72
12438.5
11422.6
13980.8
14720
13402.4
9287.51
14692.5
2771.26
11648.1
13667.8
11277
14716.7
13907.4
18284.1
14015.9
19597.8
12334.6
14701.5
11882.5
15669.1
18688.5
10051
27822.4
9709.93
17624.9
2702.25
24782.2
2633.52
18338.7
13882.2
28699.6
11392.5
16637
15899.7
26705.8
13989.3
2216.49
1435.5
820.44
1818.48
1213.46
742.458
7136.1
3671.95
1837.37
5585.28
2791.81
1408.31
7319.17
3763.08
2289.39
6701.1
3169.14
1887.85
2918.24
1323.04
826.738
6450.27
2526.22
1213.23
8356.7
3366.63
1466.78
9577.77
4290.37
2246.17
9205.62
3702.23
1673.63
7997.19
4001.78
1900.42
6992.1
3521.51
1486.02
8441.66
3951.38
1530.53
9166.43
4113.39
1545.21
12185.8
4800.4
1485.98
12115.8
15251
10362.9
12659.3
16134.2
21421.8
15539.7
20469.9
-116.834
356.709
-510.718
72.3693
2571.19
2435.81
1199.99
690.997
1481.16
2898.37
9565.95
12657.9
5015.71
3331.25
12521.5
12934.5
22184.9
24834
76.5875
-3585.4
8247.68
7866.9
6281.34
4748.32
720.405
366.711
605.159
332.932
1960.08
313.156
475.201
-73.7921
7548.92
1528.42
5751.58
1405.98
7687.3
1955.42
9116.03
2232.51
10895.1
10966.2
10164.7
10840.4
18700.4
16571.7
18207
15916.7
6022.99
7023.08
6782.38
6887.88
10751.4
10639.9
11596.8
10602.6
19327.4
15876.9
20227.6
15794.3
6056.66
6887.04
6374.39
6865.62
217.555
478.948
3976.69
1376.14
85.7341
325.952
3615.37
1190.75
447.455
596.658
4064.57
1489.9
590.776
635.622
3995.66
1486.99
-199.706
-219.681
122.415
9.08687
-1087.93
-933.36
30.5185
-118.688
130.725
-433.126
710.957
310.618
-6255.66
-8120.3
-2613.59
-1645.23
-183.245
-8814.06
-6875.41
-1865.66
-2321.74
-365.645
10126.6
6970.66
4784.85
3224.25
1102.6
-136.455
-78.9868
-16.9775
-18.9164
-517.354
-313.412
-65.0193
-58.6859
-533.159
-459.958
86.8843
8.25987
-2999.28
-610.041
-3758.68
-1491.39
-960.783
-395.415
-943.304
-515.037
-5.78366
53.9396
3912.43
1952.73
1773.81
149.145
1115.69
103.5
771.231
143.526
264.088
130.546
4277.55
2728.01
7108.3
3513.99
7471.84
5250.08
10627.9
6604.46
4323.09
2036
2467.9
1631.94
8085.05
3215.14
8616.84
3485.97
11575.2
6820.68
12081.5
7289.41
5084.8