/*--------------------------------*- C++ -*----------------------------------*\
  =========                 |
  \\      /  F ield         | OpenFOAM: The Open Source CFD Toolbox
   \\    /   O peration     | Website:  https://openfoam.org
    \\  /    A nd           | Version:  11
     \\/     M anipulation  |
\*---------------------------------------------------------------------------*/
FoamFile
{
    format      ascii;
    class       volScalarField;
    location    "4";
    object      epsilon;
}
// * * * * * * * * * * * * * * * * * * * * * * * * * * * * * * * * * * * * * //

dimensions      [0 2 -3 0 0 0 0];

internalField   nonuniform List<scalar> 
700
(
9.08979e-05
9.08979e-05
9.08979e-05
9.08979e-05
9.08979e-05
9.08979e-05
9.08979e-05
9.08979e-05
9.08979e-05
9.08979e-05
9.08979e-05
9.08979e-05
9.08979e-05
9.08979e-05
9.08979e-05
9.08979e-05
9.08979e-05
9.08979e-05
9.08979e-05
9.08979e-05
9.08979e-05
9.08979e-05
9.08979e-05
9.08979e-05
9.08979e-05
9.08979e-05
9.08979e-05
9.08979e-05
9.08979e-05
9.08979e-05
9.08979e-05
9.08979e-05
9.08979e-05
9.08979e-05
9.08979e-05
9.08979e-05
9.08979e-05
9.08979e-05
9.08979e-05
9.08979e-05
9.08979e-05
9.08979e-05
9.08979e-05
9.08979e-05
9.08979e-05
9.08979e-05
9.08979e-05
9.08979e-05
9.08979e-05
9.08979e-05
9.08979e-05
9.08979e-05
9.08979e-05
9.08979e-05
9.08979e-05
9.08979e-05
9.08979e-05
9.08979e-05
9.08979e-05
9.08979e-05
9.0898e-05
9.0898e-05
9.0898e-05
9.0898e-05
9.08979e-05
9.08979e-05
9.08979e-05
9.08979e-05
9.08979e-05
9.08979e-05
9.08991e-05
9.08986e-05
9.08982e-05
9.0898e-05
9.0898e-05
9.0898e-05
9.0898e-05
9.08979e-05
9.08978e-05
9.08975e-05
9.09373e-05
9.09174e-05
9.09045e-05
9.08996e-05
9.08985e-05
9.08985e-05
9.08985e-05
9.08973e-05
9.08922e-05
9.0882e-05
9.19009e-05
9.13192e-05
9.10251e-05
9.09277e-05
9.09061e-05
9.09059e-05
9.09064e-05
9.08859e-05
9.07918e-05
9.0507e-05
9.83767e-05
9.40567e-05
9.18296e-05
9.11206e-05
9.09425e-05
9.0907e-05
9.08765e-05
9.08085e-05
9.06987e-05
9.07026e-05
9.63697e-05
9.43586e-05
9.22995e-05
9.13743e-05
9.10366e-05
9.09396e-05
9.09132e-05
9.08762e-05
9.07885e-05
9.07022e-05
9.41585e-05
9.3834e-05
9.24212e-05
9.15872e-05
9.1173e-05
9.0999e-05
9.09411e-05
9.09229e-05
9.0894e-05
9.08382e-05
9.15485e-05
9.25962e-05
9.20504e-05
9.15779e-05
9.12553e-05
9.10673e-05
9.09735e-05
9.0935e-05
9.09191e-05
9.08997e-05
8.86514e-05
9.0691e-05
9.10815e-05
9.11637e-05
9.11206e-05
9.10476e-05
9.09852e-05
9.09444e-05
9.09222e-05
9.09096e-05
8.59638e-05
8.85072e-05
8.96838e-05
9.03428e-05
9.06799e-05
9.08331e-05
9.08919e-05
9.0908e-05
9.09085e-05
9.09052e-05
8.41261e-05
8.67501e-05
8.84007e-05
8.94679e-05
9.01218e-05
9.05e-05
9.07056e-05
9.08101e-05
9.08594e-05
9.08806e-05
8.36394e-05
8.61013e-05
8.78723e-05
8.90702e-05
8.98435e-05
9.03183e-05
9.05948e-05
9.07471e-05
9.08254e-05
9.08606e-05
8.47516e-05
8.68872e-05
8.84112e-05
8.94243e-05
9.00674e-05
9.0456e-05
9.06804e-05
9.08063e-05
9.08783e-05
9.09253e-05
8.7744e-05
8.89736e-05
8.97542e-05
9.02623e-05
9.05738e-05
9.07574e-05
9.08716e-05
9.09654e-05
9.10864e-05
9.12878e-05
9.05781e-05
9.04054e-05
9.05191e-05
9.06661e-05
9.07781e-05
9.08513e-05
9.09005e-05
9.09421e-05
9.0988e-05
9.10369e-05
9.07892e-05
9.07533e-05
9.07713e-05
9.08123e-05
9.08509e-05
9.08798e-05
9.09011e-05
9.09191e-05
9.09366e-05
9.09511e-05
9.08767e-05
9.08667e-05
9.08663e-05
9.08741e-05
9.08841e-05
9.0893e-05
9.09005e-05
9.09073e-05
9.09135e-05
9.09179e-05
9.09012e-05
9.08974e-05
9.08947e-05
9.08944e-05
9.08957e-05
9.08975e-05
9.08996e-05
9.09017e-05
9.09037e-05
9.0905e-05
9.09036e-05
9.0902e-05
9.09002e-05
9.08989e-05
9.08984e-05
9.08985e-05
9.08988e-05
9.08994e-05
9.08999e-05
9.09003e-05
9.09014e-05
9.09007e-05
9.08998e-05
9.08991e-05
9.08986e-05
9.08984e-05
9.08984e-05
9.08985e-05
9.08986e-05
9.08987e-05
9.08995e-05
9.08993e-05
9.08989e-05
9.08986e-05
9.08983e-05
9.08982e-05
9.08981e-05
9.08981e-05
9.08982e-05
9.08982e-05
9.08985e-05
9.08985e-05
9.08983e-05
9.08982e-05
9.08981e-05
9.0898e-05
9.0898e-05
9.0898e-05
9.0898e-05
9.0898e-05
9.08982e-05
9.08981e-05
9.08981e-05
9.0898e-05
9.0898e-05
9.0898e-05
9.0898e-05
9.0898e-05
9.0898e-05
9.0898e-05
9.0898e-05
9.0898e-05
9.0898e-05
9.0898e-05
9.0898e-05
9.0898e-05
9.0898e-05
9.0898e-05
9.0898e-05
9.0898e-05
9.0898e-05
9.0898e-05
9.0898e-05
9.0898e-05
9.0898e-05
9.0898e-05
9.0898e-05
9.0898e-05
9.0898e-05
9.0898e-05
9.0898e-05
9.0898e-05
9.0898e-05
9.0898e-05
9.0898e-05
9.0898e-05
9.0898e-05
9.0898e-05
9.0898e-05
9.0898e-05
9.0898e-05
9.0898e-05
9.0898e-05
9.0898e-05
9.0898e-05
9.0898e-05
9.0898e-05
9.0898e-05
9.0898e-05
9.0898e-05
9.0898e-05
9.0898e-05
9.0898e-05
9.0898e-05
9.0898e-05
9.0898e-05
9.0898e-05
9.0898e-05
9.0898e-05
9.0898e-05
9.0898e-05
9.0898e-05
9.0898e-05
9.0898e-05
9.0898e-05
9.0898e-05
9.0898e-05
9.0898e-05
9.0898e-05
9.0898e-05
9.0898e-05
9.0898e-05
9.0898e-05
9.0898e-05
9.0898e-05
9.0898e-05
9.0898e-05
9.0898e-05
9.0898e-05
9.0898e-05
9.0898e-05
9.0898e-05
9.0898e-05
9.0898e-05
9.0898e-05
9.0898e-05
9.0898e-05
9.0898e-05
9.0898e-05
9.0898e-05
9.0898e-05
9.0898e-05
9.0898e-05
9.0898e-05
9.0898e-05
9.0898e-05
9.0898e-05
9.0898e-05
9.0898e-05
9.0898e-05
9.0898e-05
9.0898e-05
9.0898e-05
9.0898e-05
9.0898e-05
9.0898e-05
9.0898e-05
9.0898e-05
9.0898e-05
9.0898e-05
9.0898e-05
9.0898e-05
9.0898e-05
9.0898e-05
9.0898e-05
9.0898e-05
9.0898e-05
9.0898e-05
9.0898e-05
9.0898e-05
9.12005e-05
9.12796e-05
9.137e-05
9.14564e-05
9.15219e-05
9.1559e-05
9.15681e-05
9.15414e-05
9.14935e-05
9.14395e-05
9.10339e-05
9.11029e-05
9.11757e-05
9.12262e-05
9.12369e-05
9.12093e-05
9.11545e-05
9.10867e-05
9.10199e-05
9.09591e-05
9.09655e-05
9.10029e-05
9.10377e-05
9.10503e-05
9.1034e-05
9.09977e-05
9.09549e-05
9.09165e-05
9.0888e-05
9.08703e-05
9.09388e-05
9.0956e-05
9.09668e-05
9.09632e-05
9.0946e-05
9.09237e-05
9.09043e-05
9.08915e-05
9.08854e-05
9.08842e-05
9.09386e-05
9.09466e-05
9.09433e-05
9.0932e-05
9.09177e-05
9.09052e-05
9.08975e-05
9.08944e-05
9.08949e-05
9.08986e-05
9.09659e-05
9.09777e-05
9.09606e-05
9.09371e-05
9.09176e-05
9.0905e-05
9.08985e-05
9.0896e-05
9.08963e-05
9.08992e-05
9.1035e-05
9.10776e-05
9.1039e-05
9.09852e-05
9.0943e-05
9.09161e-05
9.09008e-05
9.08927e-05
9.08876e-05
9.08815e-05
9.11758e-05
9.13133e-05
9.12402e-05
9.11222e-05
9.10244e-05
9.09562e-05
9.09096e-05
9.08709e-05
9.08224e-05
9.07538e-05
9.14431e-05
9.18081e-05
9.1685e-05
9.14554e-05
9.1252e-05
9.10922e-05
9.09516e-05
9.07743e-05
9.04773e-05
9.00694e-05
9.17538e-05
9.27496e-05
9.27027e-05
9.24437e-05
9.21936e-05
9.19714e-05
9.17006e-05
9.11606e-05
8.98532e-05
8.69206e-05
9.10505e-05
9.09819e-05
9.09406e-05
9.09206e-05
9.09119e-05
9.09063e-05
9.08908e-05
9.08323e-05
9.06361e-05
9.00194e-05
9.09527e-05
9.09352e-05
9.09188e-05
9.09068e-05
9.08963e-05
9.08811e-05
9.08504e-05
9.0786e-05
9.06647e-05
9.04918e-05
9.09179e-05
9.09127e-05
9.09063e-05
9.08999e-05
9.08921e-05
9.08794e-05
9.08564e-05
9.08172e-05
9.07609e-05
9.07056e-05
9.09049e-05
9.09032e-05
9.09007e-05
9.08976e-05
9.08931e-05
9.08856e-05
9.08729e-05
9.08538e-05
9.08302e-05
9.08112e-05
9.09002e-05
9.08997e-05
9.08987e-05
9.08973e-05
9.08952e-05
9.08915e-05
9.08857e-05
9.08775e-05
9.08684e-05
9.08618e-05
9.08986e-05
9.08985e-05
9.08981e-05
9.08976e-05
9.08967e-05
9.08952e-05
9.08928e-05
9.08897e-05
9.08864e-05
9.08841e-05
9.08982e-05
9.08981e-05
9.0898e-05
9.08978e-05
9.08974e-05
9.08969e-05
9.0896e-05
9.0895e-05
9.08939e-05
9.08931e-05
9.0898e-05
9.0898e-05
9.0898e-05
9.08979e-05
9.08978e-05
9.08976e-05
9.08973e-05
9.0897e-05
9.08966e-05
9.08964e-05
9.0898e-05
9.0898e-05
9.0898e-05
9.08979e-05
9.08979e-05
9.08978e-05
9.08978e-05
9.08977e-05
9.08976e-05
9.08975e-05
9.0898e-05
9.0898e-05
9.0898e-05
9.08979e-05
9.08979e-05
9.08979e-05
9.08979e-05
9.08979e-05
9.08978e-05
9.08978e-05
9.0898e-05
9.0898e-05
9.0898e-05
9.0898e-05
9.0898e-05
9.0898e-05
9.0898e-05
9.08979e-05
9.08979e-05
9.08979e-05
9.0898e-05
9.0898e-05
9.0898e-05
9.0898e-05
9.0898e-05
9.0898e-05
9.0898e-05
9.08979e-05
9.08979e-05
9.08979e-05
9.0898e-05
9.0898e-05
9.0898e-05
9.0898e-05
9.0898e-05
9.0898e-05
9.0898e-05
9.08979e-05
9.08979e-05
9.08979e-05
9.0898e-05
9.0898e-05
9.0898e-05
9.0898e-05
9.0898e-05
9.0898e-05
9.0898e-05
9.08979e-05
9.08979e-05
9.08979e-05
9.0898e-05
9.0898e-05
9.0898e-05
9.0898e-05
9.0898e-05
9.0898e-05
9.0898e-05
9.08979e-05
9.08979e-05
9.08979e-05
9.0898e-05
9.0898e-05
9.0898e-05
9.0898e-05
9.0898e-05
9.0898e-05
9.0898e-05
9.08979e-05
9.08979e-05
9.08979e-05
9.0898e-05
9.0898e-05
9.0898e-05
9.0898e-05
9.0898e-05
9.0898e-05
9.0898e-05
9.08979e-05
9.08979e-05
9.08979e-05
9.0898e-05
9.0898e-05
9.0898e-05
9.0898e-05
9.0898e-05
9.0898e-05
9.0898e-05
9.08979e-05
9.08979e-05
9.08979e-05
9.0898e-05
9.0898e-05
9.0898e-05
9.0898e-05
9.0898e-05
9.0898e-05
9.0898e-05
9.08979e-05
9.08979e-05
9.08979e-05
9.0898e-05
9.0898e-05
9.0898e-05
9.0898e-05
9.0898e-05
9.0898e-05
9.0898e-05
9.08979e-05
9.08979e-05
9.08979e-05
)
;

boundaryField
{
    defaultFaces
    {
        type            empty;
    }
}


// ************************************************************************* //
