/*--------------------------------*- C++ -*----------------------------------*\
  =========                 |
  \\      /  F ield         | OpenFOAM: The Open Source CFD Toolbox
   \\    /   O peration     | Website:  https://openfoam.org
    \\  /    A nd           | Version:  11
     \\/     M anipulation  |
\*---------------------------------------------------------------------------*/
FoamFile
{
    format      ascii;
    class       volScalarField;
    location    "4";
    object      k;
}
// * * * * * * * * * * * * * * * * * * * * * * * * * * * * * * * * * * * * * //

dimensions      [0 2 -2 0 0 0 0];

internalField   nonuniform List<scalar> 
700
(
0.00038075
0.00038075
0.00038075
0.00038075
0.00038075
0.00038075
0.00038075
0.00038075
0.00038075
0.00038075
0.00038075
0.00038075
0.00038075
0.00038075
0.00038075
0.00038075
0.00038075
0.00038075
0.00038075
0.00038075
0.00038075
0.00038075
0.00038075
0.00038075
0.00038075
0.00038075
0.00038075
0.00038075
0.00038075
0.00038075
0.00038075
0.00038075
0.00038075
0.00038075
0.00038075
0.00038075
0.00038075
0.00038075
0.00038075
0.00038075
0.00038075
0.00038075
0.00038075
0.00038075
0.00038075
0.00038075
0.00038075
0.00038075
0.00038075
0.00038075
0.00038075
0.00038075
0.00038075
0.00038075
0.00038075
0.00038075
0.00038075
0.00038075
0.00038075
0.00038075
0.00038075
0.00038075
0.00038075
0.00038075
0.00038075
0.00038075
0.00038075
0.00038075
0.00038075
0.00038075
0.000380756
0.000380753
0.000380751
0.00038075
0.00038075
0.00038075
0.00038075
0.00038075
0.000380749
0.000380747
0.000380954
0.000380856
0.000380788
0.00038076
0.000380753
0.000380752
0.000380752
0.000380744
0.000380718
0.000380669
0.000385512
0.000382869
0.000381437
0.000380924
0.000380796
0.000380782
0.000380768
0.000380647
0.000380191
0.000378938
0.000414106
0.000395382
0.000385355
0.000381947
0.000380996
0.00038074
0.000380519
0.000380137
0.000379588
0.000379539
0.000405485
0.000396733
0.000387553
0.000383214
0.000381523
0.000380973
0.000380767
0.000380519
0.000380055
0.000379603
0.000395466
0.000394136
0.000387998
0.000384203
0.000382219
0.00038133
0.000380992
0.000380842
0.000380645
0.000380327
0.000383628
0.000388254
0.000386052
0.000384024
0.000382562
0.000381665
0.00038119
0.000380971
0.000380856
0.000380722
0.000370669
0.000379492
0.000381383
0.000381893
0.000381788
0.000381493
0.000381213
0.000381016
0.000380897
0.000380818
0.000358798
0.000369671
0.000374889
0.000377926
0.000379557
0.000380347
0.000380678
0.000380787
0.000380805
0.000380792
0.000350764
0.000361888
0.000369051
0.000373816
0.000376838
0.000378657
0.000379691
0.000380244
0.000380521
0.000380648
0.000348694
0.00035908
0.000366698
0.000371986
0.00037551
0.000377755
0.000379118
0.000379906
0.000380335
0.000380551
0.000353629
0.000362631
0.000369184
0.000373661
0.0003766
0.000378447
0.000379557
0.000380202
0.000380574
0.0003808
0.000366658
0.000371874
0.000375284
0.000377584
0.000379052
0.000379947
0.000380495
0.000380885
0.000381284
0.00038186
0.000378899
0.000378232
0.000378799
0.000379518
0.00038008
0.000380455
0.000380699
0.000380876
0.000381034
0.000381181
0.000380022
0.000379901
0.000380026
0.000380253
0.000380465
0.000380624
0.000380735
0.000380818
0.000380885
0.000380933
0.00038054
0.000380512
0.000380532
0.000380589
0.000380654
0.000380708
0.000380751
0.000380784
0.00038081
0.000380826
0.000380721
0.000380709
0.000380706
0.000380714
0.000380727
0.000380741
0.000380754
0.000380765
0.000380775
0.00038078
0.000380763
0.000380757
0.000380751
0.000380749
0.000380749
0.000380751
0.000380753
0.000380756
0.000380759
0.000380761
0.000380763
0.000380761
0.000380757
0.000380754
0.000380752
0.000380752
0.000380752
0.000380752
0.000380753
0.000380753
0.000380757
0.000380756
0.000380754
0.000380753
0.000380752
0.000380751
0.000380751
0.000380751
0.000380751
0.000380751
0.000380753
0.000380753
0.000380752
0.000380751
0.000380751
0.00038075
0.00038075
0.00038075
0.00038075
0.00038075
0.000380751
0.000380751
0.000380751
0.00038075
0.00038075
0.00038075
0.00038075
0.00038075
0.00038075
0.00038075
0.00038075
0.00038075
0.00038075
0.00038075
0.00038075
0.00038075
0.00038075
0.00038075
0.00038075
0.00038075
0.00038075
0.00038075
0.00038075
0.00038075
0.00038075
0.00038075
0.00038075
0.00038075
0.00038075
0.00038075
0.00038075
0.00038075
0.00038075
0.00038075
0.00038075
0.00038075
0.00038075
0.00038075
0.00038075
0.00038075
0.00038075
0.00038075
0.00038075
0.00038075
0.00038075
0.00038075
0.00038075
0.00038075
0.00038075
0.00038075
0.00038075
0.00038075
0.00038075
0.00038075
0.00038075
0.00038075
0.00038075
0.00038075
0.00038075
0.00038075
0.00038075
0.00038075
0.00038075
0.00038075
0.00038075
0.00038075
0.00038075
0.00038075
0.00038075
0.00038075
0.00038075
0.00038075
0.00038075
0.00038075
0.00038075
0.00038075
0.00038075
0.00038075
0.00038075
0.00038075
0.00038075
0.00038075
0.00038075
0.00038075
0.00038075
0.00038075
0.00038075
0.00038075
0.00038075
0.00038075
0.00038075
0.00038075
0.00038075
0.00038075
0.00038075
0.00038075
0.00038075
0.00038075
0.00038075
0.00038075
0.00038075
0.00038075
0.00038075
0.00038075
0.00038075
0.00038075
0.00038075
0.00038075
0.00038075
0.00038075
0.00038075
0.00038075
0.00038075
0.00038075
0.00038075
0.00038075
0.00038075
0.00038075
0.00038075
0.00038075
0.000381633
0.000381848
0.00038209
0.000382321
0.000382493
0.000382588
0.000382609
0.000382541
0.000382414
0.000382267
0.000381181
0.000381371
0.000381568
0.000381702
0.000381728
0.000381648
0.000381495
0.000381302
0.000381108
0.000380926
0.000380994
0.000381101
0.000381197
0.000381228
0.000381177
0.000381067
0.000380936
0.000380812
0.000380709
0.00038063
0.000380927
0.000380981
0.000381007
0.000380988
0.000380928
0.000380851
0.000380781
0.000380729
0.000380696
0.000380679
0.000380954
0.000380986
0.000380963
0.000380909
0.000380845
0.000380791
0.000380755
0.000380738
0.000380737
0.000380755
0.000381098
0.000381162
0.000381082
0.000380965
0.000380865
0.000380798
0.00038076
0.000380745
0.000380745
0.000380759
0.000381428
0.00038165
0.000381482
0.000381224
0.00038101
0.000380867
0.000380781
0.000380731
0.000380692
0.000380642
0.000382069
0.000382737
0.000382442
0.000381902
0.000381432
0.000381091
0.000380846
0.000380627
0.000380347
0.000379971
0.000383239
0.000384923
0.000384452
0.000383448
0.000382521
0.000381769
0.000381076
0.000380177
0.000378726
0.000376874
0.000384572
0.000388947
0.000388829
0.000387716
0.000386595
0.000385566
0.000384267
0.000381717
0.000375884
0.000363509
0.000381221
0.00038103
0.00038091
0.00038085
0.000380825
0.000380811
0.000380758
0.000380526
0.000379717
0.000377143
0.000380938
0.000380885
0.000380832
0.000380787
0.000380744
0.000380679
0.000380547
0.000380274
0.000379764
0.000379038
0.000380826
0.000380808
0.000380784
0.000380756
0.00038072
0.00038066
0.000380555
0.000380382
0.000380137
0.000379901
0.000380779
0.000380772
0.000380761
0.000380746
0.000380723
0.000380686
0.000380624
0.000380535
0.000380428
0.000380344
0.00038076
0.000380758
0.000380753
0.000380745
0.000380734
0.000380714
0.000380684
0.000380644
0.0003806
0.000380569
0.000380753
0.000380752
0.00038075
0.000380747
0.000380742
0.000380733
0.00038072
0.000380704
0.000380687
0.000380676
0.000380751
0.00038075
0.00038075
0.000380749
0.000380746
0.000380743
0.000380738
0.000380732
0.000380726
0.000380722
0.00038075
0.00038075
0.00038075
0.000380749
0.000380749
0.000380747
0.000380746
0.000380744
0.000380742
0.00038074
0.00038075
0.00038075
0.00038075
0.00038075
0.000380749
0.000380749
0.000380748
0.000380748
0.000380747
0.000380747
0.00038075
0.00038075
0.00038075
0.00038075
0.00038075
0.00038075
0.000380749
0.000380749
0.000380749
0.000380749
0.00038075
0.00038075
0.00038075
0.00038075
0.00038075
0.00038075
0.00038075
0.00038075
0.00038075
0.00038075
0.00038075
0.00038075
0.00038075
0.00038075
0.00038075
0.00038075
0.00038075
0.00038075
0.00038075
0.00038075
0.00038075
0.00038075
0.00038075
0.00038075
0.00038075
0.00038075
0.00038075
0.00038075
0.00038075
0.00038075
0.00038075
0.00038075
0.00038075
0.00038075
0.00038075
0.00038075
0.00038075
0.00038075
0.00038075
0.00038075
0.00038075
0.00038075
0.00038075
0.00038075
0.00038075
0.00038075
0.00038075
0.00038075
0.00038075
0.00038075
0.00038075
0.00038075
0.00038075
0.00038075
0.00038075
0.00038075
0.00038075
0.00038075
0.00038075
0.00038075
0.00038075
0.00038075
0.00038075
0.00038075
0.00038075
0.00038075
0.00038075
0.00038075
0.00038075
0.00038075
0.00038075
0.00038075
0.00038075
0.00038075
0.00038075
0.00038075
0.00038075
0.00038075
0.00038075
0.00038075
0.00038075
0.00038075
0.00038075
0.00038075
0.00038075
0.00038075
0.00038075
0.00038075
0.00038075
0.00038075
0.00038075
0.00038075
0.00038075
0.00038075
0.00038075
0.00038075
0.00038075
0.00038075
0.00038075
0.00038075
)
;

boundaryField
{
    defaultFaces
    {
        type            empty;
    }
}


// ************************************************************************* //
