/*--------------------------------*- C++ -*----------------------------------*\
  =========                 |
  \\      /  F ield         | OpenFOAM: The Open Source CFD Toolbox
   \\    /   O peration     | Website:  https://openfoam.org
    \\  /    A nd           | Version:  11
     \\/     M anipulation  |
\*---------------------------------------------------------------------------*/
FoamFile
{
    format      ascii;
    class       volScalarField;
    location    "4";
    object      nut;
}
// * * * * * * * * * * * * * * * * * * * * * * * * * * * * * * * * * * * * * //

dimensions      [0 2 -1 0 0 0 0];

internalField   nonuniform List<scalar> 
700
(
0.000143538
0.000143538
0.000143538
0.000143538
0.000143538
0.000143538
0.000143538
0.000143538
0.000143538
0.000143538
0.000143538
0.000143538
0.000143538
0.000143538
0.000143538
0.000143538
0.000143538
0.000143538
0.000143538
0.000143538
0.000143538
0.000143538
0.000143538
0.000143538
0.000143538
0.000143538
0.000143538
0.000143538
0.000143538
0.000143538
0.000143538
0.000143538
0.000143538
0.000143538
0.000143538
0.000143538
0.000143538
0.000143538
0.000143538
0.000143538
0.000143538
0.000143538
0.000143538
0.000143538
0.000143538
0.000143538
0.000143538
0.000143538
0.000143538
0.000143538
0.000143538
0.000143538
0.000143538
0.000143538
0.000143538
0.000143538
0.000143538
0.000143538
0.000143538
0.000143538
0.000143538
0.000143538
0.000143538
0.000143538
0.000143538
0.000143538
0.000143538
0.000143538
0.000143538
0.000143538
0.000143541
0.00014354
0.000143539
0.000143538
0.000143538
0.000143538
0.000143538
0.000143538
0.000143538
0.000143537
0.00014363
0.000143588
0.000143557
0.000143544
0.00014354
0.000143539
0.000143539
0.000143535
0.000143523
0.000143503
0.000145546
0.000144471
0.000143856
0.000143623
0.00014356
0.00014355
0.000143539
0.00014348
0.000143285
0.000142789
0.000156882
0.000149585
0.00014554
0.000144089
0.000143653
0.000143517
0.000143398
0.000143217
0.000142977
0.000142934
0.000153551
0.000150127
0.000146456
0.000144644
0.000143903
0.000143641
0.000143527
0.000143399
0.000143187
0.000142982
0.000149486
0.000148996
0.000146599
0.000145054
0.000144212
0.000143817
0.000143653
0.000143568
0.000143465
0.000143314
0.000144681
0.000146515
0.000145716
0.000144933
0.00014434
0.000143961
0.000143751
0.000143647
0.000143585
0.000143514
0.000139486
0.000142917
0.000143726
0.000143981
0.000143969
0.000143863
0.00014375
0.000143666
0.000143611
0.000143571
0.00013478
0.000138962
0.000141037
0.000142286
0.000142983
0.000143337
0.000143494
0.00014355
0.000143563
0.000143559
0.000131626
0.000135869
0.000138663
0.000140569
0.000141815
0.000142589
0.000143044
0.000143296
0.000143426
0.000143489
0.000130834
0.000134777
0.000137723
0.000139818
0.000141253
0.000142196
0.000142787
0.00014314
0.00014334
0.000143448
0.000132798
0.000136212
0.000138746
0.000140522
0.000141722
0.0001425
0.000142983
0.00014327
0.000143437
0.000143533
0.000137895
0.000139885
0.000141223
0.000142155
0.00014277
0.000143155
0.000143388
0.000143534
0.000143644
0.00014376
0.000142648
0.000142418
0.000142666
0.000142976
0.000143223
0.00014339
0.000143496
0.000143564
0.000143611
0.000143644
0.000143161
0.000143127
0.000143193
0.000143299
0.000143398
0.000143472
0.000143522
0.000143556
0.000143579
0.000143592
0.000143414
0.000143408
0.000143424
0.000143455
0.000143488
0.000143515
0.000143535
0.000143549
0.000143559
0.000143565
0.000143511
0.000143509
0.00014351
0.000143517
0.000143525
0.000143533
0.000143539
0.000143544
0.000143548
0.00014355
0.000143539
0.000143537
0.000143536
0.000143536
0.000143537
0.000143538
0.00014354
0.000143541
0.000143542
0.000143543
0.000143543
0.000143542
0.000143541
0.00014354
0.000143539
0.000143539
0.000143539
0.000143539
0.00014354
0.00014354
0.000143541
0.000143541
0.00014354
0.00014354
0.000143539
0.000143539
0.000143539
0.000143539
0.000143539
0.000143539
0.00014354
0.00014354
0.000143539
0.000143539
0.000143539
0.000143539
0.000143538
0.000143538
0.000143538
0.000143538
0.000143539
0.000143539
0.000143539
0.000143539
0.000143538
0.000143538
0.000143538
0.000143538
0.000143538
0.000143538
0.000143539
0.000143538
0.000143538
0.000143538
0.000143538
0.000143538
0.000143538
0.000143538
0.000143538
0.000143538
0.000143538
0.000143538
0.000143538
0.000143538
0.000143538
0.000143538
0.000143538
0.000143538
0.000143538
0.000143538
0.000143538
0.000143538
0.000143538
0.000143538
0.000143538
0.000143538
0.000143538
0.000143538
0.000143538
0.000143538
0.000143538
0.000143538
0.000143538
0.000143538
0.000143538
0.000143538
0.000143538
0.000143538
0.000143538
0.000143538
0.000143538
0.000143538
0.000143538
0.000143538
0.000143538
0.000143538
0.000143538
0.000143538
0.000143538
0.000143538
0.000143538
0.000143538
0.000143538
0.000143538
0.000143538
0.000143538
0.000143538
0.000143538
0.000143538
0.000143538
0.000143538
0.000143538
0.000143538
0.000143538
0.000143538
0.000143538
0.000143538
0.000143538
0.000143538
0.000143538
0.000143538
0.000143538
0.000143538
0.000143538
0.000143538
0.000143538
0.000143538
0.000143538
0.000143538
0.000143538
0.000143538
0.000143538
0.000143538
0.000143538
0.000143538
0.000143538
0.000143538
0.000143538
0.000143538
0.000143538
0.000143538
0.000143538
0.000143538
0.000143538
0.000143538
0.000143538
0.000143538
0.000143538
0.000143538
0.000143538
0.000143538
0.000143538
0.000143538
0.000143538
0.000143538
0.000143538
0.000143538
0.000143538
0.000143538
0.000143538
0.000143727
0.000143764
0.000143804
0.000143841
0.000143868
0.000143881
0.000143883
0.000143873
0.000143853
0.000143828
0.000143648
0.000143683
0.000143717
0.000143738
0.00014374
0.000143724
0.000143695
0.000143657
0.000143616
0.000143574
0.000143616
0.000143637
0.000143655
0.000143658
0.000143645
0.00014362
0.000143589
0.000143556
0.000143523
0.000143491
0.000143607
0.000143621
0.000143624
0.000143615
0.000143596
0.000143574
0.000143552
0.000143533
0.000143518
0.000143507
0.000143628
0.00014364
0.000143628
0.000143604
0.000143579
0.000143558
0.000143543
0.000143535
0.000143534
0.000143541
0.000143694
0.000143723
0.00014369
0.000143639
0.000143594
0.000143563
0.000143545
0.000143538
0.000143537
0.000143543
0.000143833
0.000143933
0.000143868
0.000143758
0.000143663
0.000143598
0.000143557
0.000143532
0.000143511
0.000143483
0.000144094
0.000144381
0.000144274
0.000144053
0.000143853
0.000143704
0.000143592
0.000143488
0.000143354
0.000143179
0.000144554
0.000145248
0.000145087
0.000144693
0.000144315
0.000144
0.000143699
0.000143302
0.000142677
0.000141925
0.000145069
0.000146795
0.00014678
0.00014635
0.0001459
0.000145474
0.000144923
0.000143853
0.00014152
0.00013682
0.000143653
0.000143617
0.000143592
0.000143578
0.000143573
0.000143571
0.000143555
0.000143473
0.000143173
0.000142207
0.000143594
0.000143582
0.000143567
0.000143553
0.000143537
0.000143511
0.00014346
0.000143356
0.000143163
0.000142889
0.000143565
0.000143559
0.000143551
0.00014354
0.000143525
0.0001435
0.000143457
0.000143388
0.000143293
0.000143202
0.00014355
0.000143547
0.000143543
0.000143536
0.000143526
0.000143509
0.000143483
0.000143446
0.000143403
0.000143369
0.000143543
0.000143541
0.000143539
0.000143536
0.00014353
0.000143522
0.000143508
0.000143491
0.000143472
0.000143459
0.00014354
0.000143539
0.000143538
0.000143537
0.000143534
0.00014353
0.000143524
0.000143517
0.000143509
0.000143505
0.000143539
0.000143539
0.000143538
0.000143538
0.000143537
0.000143535
0.000143533
0.00014353
0.000143527
0.000143525
0.000143538
0.000143538
0.000143538
0.000143538
0.000143538
0.000143537
0.000143536
0.000143535
0.000143534
0.000143534
0.000143538
0.000143538
0.000143538
0.000143538
0.000143538
0.000143538
0.000143538
0.000143537
0.000143537
0.000143537
0.000143538
0.000143538
0.000143538
0.000143538
0.000143538
0.000143538
0.000143538
0.000143538
0.000143538
0.000143538
0.000143538
0.000143538
0.000143538
0.000143538
0.000143538
0.000143538
0.000143538
0.000143538
0.000143538
0.000143538
0.000143538
0.000143538
0.000143538
0.000143538
0.000143538
0.000143538
0.000143538
0.000143538
0.000143538
0.000143538
0.000143538
0.000143538
0.000143538
0.000143538
0.000143538
0.000143538
0.000143538
0.000143538
0.000143538
0.000143538
0.000143538
0.000143538
0.000143538
0.000143538
0.000143538
0.000143538
0.000143538
0.000143538
0.000143538
0.000143538
0.000143538
0.000143538
0.000143538
0.000143538
0.000143538
0.000143538
0.000143538
0.000143538
0.000143538
0.000143538
0.000143538
0.000143538
0.000143538
0.000143538
0.000143538
0.000143538
0.000143538
0.000143538
0.000143538
0.000143538
0.000143538
0.000143538
0.000143538
0.000143538
0.000143538
0.000143538
0.000143538
0.000143538
0.000143538
0.000143538
0.000143538
0.000143538
0.000143538
0.000143538
0.000143538
0.000143538
0.000143538
0.000143538
0.000143538
0.000143538
0.000143538
0.000143538
0.000143538
0.000143538
0.000143538
0.000143538
0.000143538
0.000143538
0.000143538
0.000143538
0.000143538
0.000143538
0.000143538
0.000143538
0.000143538
0.000143538
0.000143538
0.000143538
0.000143538
0.000143538
)
;

boundaryField
{
    defaultFaces
    {
        type            empty;
    }
}


// ************************************************************************* //
