/*--------------------------------*- C++ -*----------------------------------*\
  =========                 |
  \\      /  F ield         | OpenFOAM: The Open Source CFD Toolbox
   \\    /   O peration     | Website:  https://openfoam.org
    \\  /    A nd           | Version:  11
     \\/     M anipulation  |
\*---------------------------------------------------------------------------*/
FoamFile
{
    format      ascii;
    class       volScalarField;
    location    "2.6";
    object      gradTx;
}
// * * * * * * * * * * * * * * * * * * * * * * * * * * * * * * * * * * * * * //

dimensions      [0 -1 0 1 0 0 0];

internalField   nonuniform List<scalar> 
5712
(
-6475.2
-8275.51
-15402.6
-22470.5
-22917.3
-39568.2
-17648
-44953.9
-14383.3
-31596.6
-21500.3
-32692.6
-19307.3
-25288.5
-8485.15
-9694.17
-14403.4
-16493.2
-18653.3
-18502.6
-14713.7
-18208.6
-21689.6
-19487.3
-5248.94
-3925.97
-6532.55
-4376.78
-12155.3
-9680.42
-20787
-15012.2
-16126.2
-16739.8
-17859.9
-16958.8
-6202.46
-4890.91
-38242.3
-51206.1
-24700.2
-30332.6
-51518
-66840.2
-26662.9
-30520.6
-28307.2
-40002
-24682.7
-32739.6
-14409.5
-23265.7
-2744.79
-923.54
-2894.8
-1041.8
-8292.84
-3341.04
-11402.8
-4186.54
-8082.02
-3105.58
-8647.56
-2769.2
-14763.6
-4692.19
-19060.9
-6423.3
-23485.1
-11629.9
-21497.8
-12751.1
-22101
-14293.2
-19431.2
-14652.8
-16842.5
-9998.33
-16823.9
-8542.78
-22174.3
-14215.9
-22221
-14357.4
-20513.5
-15529.4
-20760.4
-15610.4
-18198.8
-11572.8
-18852.9
-11866
-17172.6
-7408.66
-7906.95
-9589.89
-17245.2
-8087.78
-6873.31
-9680.93
-18193.6
-7385.56
-8982.45
-9684.57
-19100.4
-7569.9
-9781.44
-10132.3
-3557.75
-3880.35
-1190.55
-2305.02
-10443.6
-11031.1
-4008.47
-7047.8
-13373.3
-14893.8
-6375.5
-10812.6
-12241.9
-1186.69
-13380.7
-16374.7
-8819.87
-851.082
-7504.7
-11957.1
-19205.3
-13114.3
-9675.91
-11687.1
-10140.4
-8679.84
-13579
-3440.82
-2854.15
-1959.35
-1947
-9725.53
-8261.64
-5807.75
-5533.81
-12177.3
-10409.5
-7589.53
-6824.98
-5883.56
-7458.7
-12092.8
-12499.1
-13839.9
-12607.4
-15586.2
-13624.5
-10397.2
-8744.56
-8978.59
-9545.47
-11819.8
-9473.06
-10727.4
-7944.09
-9239.79
-6482.48
-10664
-7037.85
-10159.4
-4918.41
-8692.63
-9505.49
-12473.1
-16368.9
-13711.8
-20018
-6891.5
-7736.7
-8979.29
-3073.52
-7735.17
-14969.9
-7331.82
-16019.6
-13569.4
-24689.8
-13803.2
-26168.3
-5814.99
-12809.5
-5271.9
-13621.9
-8006.54
-6139
-11081.6
-4462.04
-8296.86
-1857.69
-9693.63
-944.003
-7673.22
-9121.72
-11601.1
-5397.5
-6332.29
-10728.7
-10251.9
-7060.25
-2295.31
-2039.52
-1849.75
-1643.87
-1520
-1374.31
-6823.78
-5684.46
-4981.65
-4346.76
-3557.93
-3126.35
-8444.47
-7378.22
-6857.91
-5247.2
-4357.67
-4151.05
-6626.53
-5950.73
-5836.68
-10971.3
-8498.82
-7225.3
-10237.6
-7717.15
-6338.01
-10767.7
-8641.88
-7579.37
-6553.87
-4407.67
-3482.51
-15792.7
-13863.3
-12136.5
-10062.6
-8511.44
-7177.22
-8837.9
-7002.58
-5695.74
-7340.38
-5410.69
-4247.37
-7418.02
-4198.21
-2427.64
-10240.4
-13906.7
-8076.13
-10470.1
-10949.2
-16124.3
-9760.24
-14254.4
-58.2937
-745.769
487.743
-108.793
-2967.64
-3374.82
-1229.3
-668.786
-707.456
-2428.53
-9337.39
-13663.7
-6639.71
-3607.5
-9753.24
-9676.66
-14952
-16461.8
583.465
4039.25
-7501.78
-7075.69
-7055.86
-5445.75
-1035.13
-556.48
-658.81
-259.405
-2024.73
-254.612
329.312
835.141
-9213.9
-2459.97
-6198.15
-1656.28
-8913.75
-2741.49
-10784.2
-3507.04
-8747.61
-11868.3
-8100.22
-11591.9
-13937.1
-14813
-13313.5
-14049.3
-5676.71
-9504.07
-6540.28
-9430.35
-8592.12
-11179.8
-9476.59
-11309
-13870.5
-13812.6
-14526.9
-13884.4
-5728.8
-9212.61
-6231.46
-9397.57
-29.63
-1539.05
-7633.43
-5001.58
542.261
-1121.24
-7073.61
-4435.24
-475.352
-1780.63
-7815.09
-5440.47
-931.157
-2052.45
-7875.2
-5649.07
663.893
771.344
-188.429
-46.9989
2850.09
2902.71
155.432
298.842
489.509
1899.36
-1833.09
-1206.18
10226.6
9458.84
5531.05
4175.04
305.698
10396.2
10797.9
4308.98
6338.97
677.56
-10111.1
-8026.19
-7271.52
-6958.54
-4437.3
808.054
769.999
3.38251
-118.931
2555.71
2586.24
-1.02209
-283.808
2559.78
3213.31
-871.373
-1267.56
5132.1
2391.58
8221.67
5238.03
3648.68
2820.08
4088.16
3619.72
-678.034
-1719.31
-3734.45
-2363.59
-1047.57
1043.68
-1102.92
723.643
-1935.98
-562.679
-2478.74
-2865.71
-5289.65
-4869.69
-10024.1
-6087.34
-8089.31
-8199.81
-12282.7
-9987.52
-8068.59
-4839.23
-4091.27
-4099.53
-11802.8
-5264.49
-12982.2
-5900.35
-13696
-10193.7
-14616.9
-10915.9
-9752.17
-3975.6
-10917.8
-4593.95
-6613.86
-5394.31
-5398.65
-8022.67
-4362.7
-4973.99
-4648.44
-7443.04
-7594.96
-5366.12
-6082.01
-9195.78
-9154.04
-5832.98
-7492.4
-9504.08
817.913
896.733
1019.03
-0.0526743
310.888
355.103
2997.86
3253.52
3278.46
174.958
894.095
910.673
3767.99
4306.04
4460.31
-743.242
858.636
1191.47
1327.94
1150.95
851.513
3958.99
4097.66
3850.05
3244.14
3740.07
3707.69
4011.96
4418.37
4352.1
-1592.83
362.944
525.381
-3422.01
-1925.13
-988.696
1100.98
2327.9
2983.99
1020.89
2620.28
3320.93
396.896
2156.44
2668.82
-2661.47
533.453
921.437
23.0157
41.6035
58.2383
89.4548
275.012
161.866
138.569
139.096
-6.5831
81.1407
198.5
318.218
444.513
298.887
340.997
380.376
-260.82
29.4613
281.51
563.581
151.072
244.627
329.129
385.623
31.7574
148.705
163.941
165.124
-229.426
-5.59421
132.576
231.168
-1024.11
-209.817
120.095
355.921
-1603.1
-372.811
21.0827
603.354
-725.911
-90.3909
204.114
511.506
-1323.76
-284.582
1.96256
530.333
-1084.71
-249.98
144.114
441.878
-1793.51
-442.865
19.4455
707.98
-1207.34
-331.742
129.125
522.541
-1930.26
-506.996
-3.71667
740.554
1.85171
23.6559
50.048
111.464
32.379
32.7405
31.4397
102.445
55.9683
81.9883
152.714
299.708
155.369
112.13
96.0104
276.716
-456.533
-56.3871
170.151
513.693
-225.473
26.1018
129.139
489.125
-120.628
121.912
249.525
511.971
-52.2559
97.4257
112.374
493.546
-1149.23
-219.435
43.2645
688.82
84.2558
46.9187
36.2257
76.9895
168.951
69.4158
37.6408
35.7288
167.493
111.064
81.9186
199.466
429.093
184.327
95.8049
92.3602
79.769
122.228
114.857
328.877
534.99
258.482
144.598
145.882
-139.113
109.308
144.711
456.527
402.084
278.198
172.514
186.072
-621.735
8.43627
85.1698
442.206
84.7112
238.916
162.184
192.291
-1335.85
-135.055
74.7234
513.153
-442.466
59.0985
106.483
181.48
-1046.1
-44.2256
86.7027
479.088
-282.655
139.003
139.425
195.425
-1603.39
-248.352
35.8665
556.262
-589.066
-20.7516
70.4264
169.846
-1804.36
-362.404
-19.0705
549.271
-726.549
-109.41
22.534
146.787
40.01
18.2964
9.82037
6.02002
4.49419
52.9328
28.2131
16.1699
10.1669
7.64199
95.4821
42.615
22.82
14.0651
10.5798
120.166
63.2993
36.3129
22.9455
17.305
126.546
53.3738
28.2273
17.3815
13.109
161.959
84.0314
48.313
30.6944
23.2295
85.284
43.144
24.6929
15.7157
11.9008
60.0122
25.1422
13.1966
8.17012
6.1285
127.862
54.7222
29.4508
18.3313
13.7768
60.8786
22.353
11.3462
6.91757
5.16229
134.744
63.7589
35.8752
22.6629
17.1318
57.4455
22.2435
11.6335
7.14713
5.32739
98.0863
35.6524
17.8064
10.8251
8.0891
57.5999
19.9486
9.92718
6.04782
4.52175
84.4504
22.6188
9.1079
5.06828
3.6556
46.5832
10.6561
3.91294
2.09144
1.48151
33.272
13.785
7.13688
4.29008
3.1773
24.0218
10.9408
5.91978
3.60659
2.68008
81.271
34.671
18.4037
11.2176
8.37958
62.0548
28.8813
15.8958
9.77211
7.28785
113.906
42.7167
21.7575
13.0783
9.7427
84.4429
39.9198
22.2036
13.6971
10.2844
103.232
49.0768
27.7768
17.4798
13.2308
57.671
30.4865
17.5172
10.9381
8.29084
53.7357
27.0175
15.629
9.93546
7.52131
-351.356
-465.78
-801.046
-1143.71
-860.137
-1438.38
-364.105
-1188.77
270.483
-284.829
-756.815
-1231.12
107.519
33.8645
-1136.06
-1780.43
-1419.47
-2019.92
-590.265
-136.526
-30.6648
-6.75476
-1.68924
-207.296
-90.1665
-12.8793
-3.3685
-1.44045
-1813.61
-417.682
-94.1372
-20.6341
-5.16683
-498.146
-132.006
-31.7064
-6.63751
-1.76851
-3052.98
-704.648
-159.219
-35.0089
-8.74635
-785.976
-222.292
-53.3629
-12.2678
-3.06064
-4109.48
-951.355
-215.81
-47.5873
-11.9009
-912.015
-278.813
-69.1175
-16.0816
-4.00661
-5153.72
-1204.95
-275.196
-60.9767
-15.3104
-1001.92
-337.101
-86.112
-20.3139
-5.12185
-6150.82
-1482.84
-343.333
-76.7024
-19.3396
-1520.79
-463.995
-114.248
-26.1549
-6.52683
-5709.1
-1370.99
-316.027
-70.3138
-17.675
-1195.2
-395.346
-100.145
-23.36
-5.83471
-6358.45
-1535.74
-356.297
-79.7252
-20.1317
-1714.68
-507.229
-123.147
-27.8131
-6.92442
-6635.26
-1589.46
-369.324
-82.608
-20.8482
-1774.96
-527.152
-129.176
-27.1068
-7.14269
-513.59
-6801.23
-6208.32
-2237.09
1605.69
2746.66
7668.06
11211.6
1704.43
8222.25
-1581.06
2570.58
2468
4859.21
9147.23
12945.3
13852.4
17379.3
5653.36
7320.99
-19723.8
-14303.1
-4888
-3872.98
-2790.68
-3999.75
-3692.62
-12206.5
-11827.8
-10049.2
-10998.5
-9161.97
-6545.31
-8472.57
-5685.66
-4813.51
-5877.44
-4035.76
-19743.1
-10371
-3736.52
-6348.56
-8527.48
-5983.32
-6574.07
-4906.6
-3015.12
-4269.33
-4501.49
-4858.65
-19416.7
-12797.6
-12194.4
-8842.34
-8831.84
-9235.81
-4056.96
-5369.87
-6735.94
-14222.7
-12497.3
-10729.5
-10198.5
-9051.97
-9345.66
-6464.34
-5119.1
-4036.79
-2135.43
-4322.34
-3591.68
-2698.15
-1685.19
-577.432
-3462.07
-2901.69
-2186.13
-1359.91
-462.208
-2480.43
-2063.95
-1542.74
-953.118
-322.572
-3578.85
-2999.71
-2256.63
-1399.94
-474.546
-3280.64
-2731.38
-2046.03
-1268.25
-430.517
-7923.07
-6163.33
-4950.09
-4741.78
-5288.28
-6519.18
-4864.75
-3545.56
-3019.18
-2151.12
-6286.21
-3785.96
-2665.54
-1906.28
-941.049
-5672.38
-3858.83
-2608.31
-1942.76
-1168.74
-4283.98
-2688.78
-1693.49
-1198.7
-597.497
-5189.64
-3886.1
-2695.55
-1619.98
-560.423
-5766.91
-3701.24
-2433.1
-1472.69
-558.728
-3729.91
-2219.74
-1329.48
-722.282
-245.56
-3971.55
-3070.99
-2168.11
-1301.23
-440.272
-4695.97
-3509.62
-2397.62
-1400.45
-466.261
-3364.47
-2621.62
-1854.62
-1107.55
-370.818
-13178.6
-10189.2
-8415.64
-7718.14
-7598.6
-7669.56
-5593.15
-4144.58
-2865.2
-1318.4
-3115.05
-2443.75
-1757.08
-1076.58
-372.615
-5389.11
-4319.58
-3177.79
-1989.11
-701.568
-7012.2
-5534.47
-4106.53
-2670.19
-1022.46
-5105.21
-4128.71
-3076.23
-1953.43
-697.356
-5703.71
-4673.17
-3498.3
-2207.44
-773.682
-4276.69
-3504.21
-2606.46
-1623.15
-558.371
-2602.33
-2099.52
-1528.95
-929.868
-313.254
-3762.35
-3104.53
-2306.84
-1422.28
-481.882
-3834.57
-3061.26
-2219.89
-1355.18
-461.226
-4213.9
-3430.73
-2533.32
-1566.98
-536.65
-13645.6
-11475.8
-9788.78
-8976.5
-8092.83
-8937.97
-6457.5
-5058.81
-3840.39
-2008.98
-9062.25
-7252.16
-5617.09
-4248.26
-2114.85
-6986.68
-5338.38
-4066.26
-2811.74
-1166.21
-7394.01
-5945.08
-4476.46
-2933.93
-1114.31
-7238.92
-5485.76
-4151.21
-2858.17
-1171.64
-3490.21
-2831.06
-2099.11
-1315.61
-459.772
-4738.14
-3921.31
-2928.73
-1817.2
-618.93
-5809.43
-4727.78
-3518.62
-2211.58
-773.004
-5446.31
-11074.3
-11569.8
-31619.3
-11427.7
-42390
-6223.21
-15077.9
-11441.6
-8846.71
-18956.4
-15822.8
-11442
-10798
-21303.5
-16904.8
-4005
-2971.9
-7734.88
-5307.67
-8979.07
-6762.22
-24039.7
-17741.4
-14810.3
-11263.2
-15215.7
-9057.07
-1175.12
-3654
-39446.6
-51691.7
-23872.9
-30186.5
-52210.1
-67116.2
-25752.9
-30300.3
-29362.4
-40542.3
-23933.3
-32680.2
-15839
-23939.3
-1907.03
-502.18
-3344.14
-1140.2
-6486.8
-2890.12
-13145.4
-4742.5
-2860.91
-1618.38
-7150.57
-2245.29
-14790.8
-4642.66
-19234.9
-6472.14
-16205.5
-8383.88
-18632.2
-11087
-14823.4
-10601.1
-16591.8
-12883.6
-14833.9
-8681.12
-11753.4
-6055.87
-21064.8
-13464
-21943.2
-14151.4
-19384
-14760.4
-20458.7
-15400.8
-17457
-10961.7
-18676.9
-11697
-16205.5
-7137.74
-7045.07
-9267.41
-14509.2
-7291.8
-5268.97
-9093.12
-17932.1
-7317.76
-8580.27
-9525.64
-19068.4
-7564.6
-9667.82
-10085.7
-1097.95
-984.509
-264.167
-1159.05
-4458.62
-4601.91
-2778.92
-5494.3
-2483.77
-3097
-4305.98
-8129.57
-11956.6
-9639.8
-9197.19
-11439.1
-7503.87
-7602.39
-8098.21
-6739.7
-13234
-11410.1
-11369.7
-9472.01
-6541.26
-5585.47
-12261.9
-1060.76
-796.748
-590.153
-661.322
-4142.39
-3295.36
-3496.37
-3080.65
-586.657
519.869
-4127.88
-3240.73
-10113.6
-10744.7
-9436.82
-8635.81
-6968.2
-5064.51
-9098.18
-7254.81
-8081.68
-6332.47
-11479.8
-11713
-9784.12
-7694.9
-7213.15
-4932.76
-6331.12
-4035.58
-9409.41
-5742.53
-9216.88
-5085.9
-8213.11
-9381.35
-12973.2
-17282.4
-13680.9
-19981.6
-6266.79
-7470.86
-7614.86
-2903.19
-7562.39
-14818.5
-7291.37
-15963.1
-13510.2
-24781.2
-13780.6
-26147.4
-5580.26
-12623.8
-5216.27
-13565.3
-7539.59
-5963.75
-10885.9
-4430.79
-7274.22
-1819.8
-9370.58
-1246.14
-7486.85
-9002.07
-11512.5
-5370.6
-6283.31
-10690.1
-10228.2
-7045.88
-786.906
-731.925
-530.908
-613.616
-2514.68
-1837.99
-2268.96
-2063.88
1076.42
601.642
-2660.44
-2959.26
-10643.4
-10115.1
-7643.67
-6620.29
-4026.35
-3404.47
-5689.24
-4702.42
-5323.17
-3892.29
-18226.5
-16002.6
-7913.67
-6774.96
-5970.5
-4581.42
-4910.01
-3186.53
-5207.54
-2291.62
-5582.65
-9177.33
-4894.02
-9272.86
-8228.98
-10305.7
-9218.08
-12570.6
-998.451
-736.064
-785.145
-674.248
-3639.87
-2626.32
-2989.43
-1713.21
-1451.44
-1725.55
-8332.98
-8963.89
-4696.63
-4243.26
-9261.04
-9569.54
-14150.8
-16240.1
314.081
3833.4
-7352.25
-7113.06
-6978.35
-5504.22
-1087.86
-991.414
-1176.5
-974.293
-1796.83
-1258.48
-671.962
-583.539
-8162.14
-3874.9
-6932.57
-3252.38
-9237.04
-3701.54
-10925.3
-3901.52
-5434.27
-10265.3
-7003.2
-10744.6
-8620.74
-11580.3
-11275.9
-12551
-5311.24
-9333.89
-4826.18
-9293.68
-8155.72
-10836.6
-9349.28
-11219.1
-13019
-13188.9
-14284.8
-13715.8
-5665.41
-9175.62
-6228.15
-9398.03
-671.264
-2408.19
-8084.13
-5689.44
-652.83
-2492.05
-8005.15
-5447.52
-956.838
-2394.09
-8069.08
-5863.67
-1130.37
-2300.03
-7951.93
-5795.32
-1093.29
-1205.91
-1033.51
-1128.64
-2153.48
-2215.76
-1514.53
-1659.43
-8463.17
-7826.02
-4073.85
-4143.05
-3805.12
-5243.82
-4134.83
-436.737
-1990.44
-1351.9
-1441.12
-3651.77
2552.95
-1052.48
-13690.4
-11740.3
-10741
-9471.49
-6109.79
-1216.75
-1105.15
-1280.49
-1615.61
-2205.47
-1740.23
-2138.78
-2851.9
-8200.04
-8130.54
-4592.06
-5984.1
-5056.39
-6714.7
-3216
-5145.58
-4935.41
-5386.58
-1292.6
-1652.52
-3176.67
-4717.63
-9653.81
-7952.5
-7695.27
-5673.85
-6823.07
-4897.51
-6184.08
-4564.52
-4728.11
-5241.66
-8441.08
-8359.49
-11341.7
-7356.64
-10420.5
-11211.5
-13040.3
-10996.4
-9660.12
-6075.86
-7146.15
-7163.29
-12326.8
-6056.97
-13119.1
-6094.28
-13911.4
-10850
-14661
-11057.9
-10490.7
-4754.1
-11127.1
-4802.47
-8135.19
-6524.14
-6758.34
-9302.57
-6972.34
-7458.7
-6604.5
-9511.48
-8394.54
-6107.05
-6858.11
-10014.9
-9404.72
-6066.98
-7744.13
-9739.47
-901.517
-774.224
-1170.3
-849.291
-1474.64
-1737.23
-1742.51
-1252.73
-7975.63
-6981.63
-4029.45
-1786.12
-7890.37
-7496.78
-6194.6
-5573.03
-5226.09
-4471.75
-1954.52
-1985.6
-4497.35
-2008.28
-8649.61
-7417.12
-4940.46
-3890.45
-3896.2
-2406.64
-2950.42
-1247.02
-4704.13
-123.109
-250.524
-116.153
-39.9161
25.7612
-236.306
-149.786
-57.6752
10.7034
-676.647
-302.31
-17.5871
190.381
-612.788
-358.691
-63.2232
115.818
-1105.71
-446.9
22.9756
436.359
-1091.57
-542.032
-191.811
13.0373
-748.013
-365.197
-180.387
-58.6004
-572.401
-239.136
-25.0957
125.421
-1650.7
-584.037
-131.805
165.418
-1971.08
-563.332
-87.6675
579.169
-1586.82
-562.39
-91.6786
297.044
-1790.91
-507.226
-115.94
530.352
-1540.74
-537.417
-40.5562
329.342
-2042.11
-580.139
-67.6783
671.818
-1394.8
-454.094
49.0876
472.344
-2021.34
-559.528
-37.5768
726.773
-232.522
-95.1263
-14.6591
80.2233
-200.465
-72.6232
-28.5658
77.2963
-599.729
-248.796
-25.3328
205.966
-503.881
-191.536
-76.5218
199.302
-1184.8
-414.627
-10.0889
449.557
-1077.59
-361.785
-85.4762
413.729
-1314.78
-492.358
-97.1452
328.975
-994.903
-343.547
-116.295
461.915
-1805.8
-506.959
-100.941
729.424
-144.114
-54.3551
-16.8609
49.6478
-64.9855
-38.0553
-18.1728
-0.485287
-434.697
-157.178
-66.7637
119.749
-216.094
-113.917
-62.6274
-9.85747
-772.791
-261.509
-101.24
216.728
-443.53
-200.005
-98.6777
-9.13448
-1176.8
-376.998
-129.514
326.891
-781.561
-295.308
-131.465
-3.68999
-1553.22
-453.057
-196.53
282.544
-1058.65
-357.633
-171.249
-25.2951
-2081.97
-587.921
-209.378
353.411
-1054.07
-332.455
-139.744
15.3481
-2004.68
-577.111
-240.067
295.311
-1164.19
-370.45
-164.654
-11.0116
-2057.01
-538.06
-149.341
455.035
-945.963
-267.408
-86.5328
68.6751
-1953.5
-460.451
-82.4709
514.537
-838.735
-189.909
-29.247
113.705
-8.11885
-12.7042
-9.30719
-6.40212
-4.97157
-32.9584
-24.5869
-16.0298
-10.6871
-8.24023
-16.2754
-28.9747
-21.2612
-14.5472
-11.2202
-71.2145
-54.4048
-35.5075
-23.5846
-18.1385
-10.609
-34.8764
-26.076
-17.8592
-13.7414
-92.8254
-71.5461
-46.4328
-30.6656
-23.5101
-44.9557
-35.8598
-23.3793
-15.4193
-11.8195
-6.81386
-15.4705
-11.5568
-7.88634
-6.12664
-22.5924
-37.8203
-27.008
-18.2496
-14.0925
4.56035
-12.8015
-10.1571
-7.02192
-5.45931
-56.7001
-51.8506
-34.2301
-22.6806
-17.3954
-2.46081
-14.6665
-10.8563
-7.4144
-5.76294
11.2528
-18.3366
-15.2404
-10.6134
-8.25625
8.55639
-10.3151
-8.53827
-5.92135
-4.6048
44.7221
-2.17936
-6.13439
-4.86632
-3.96742
30.1376
0.320879
-2.44755
-2.06049
-1.71336
-1.02403
-8.94647
-6.92139
-4.83904
-3.778
-7.67385
-8.74111
-6.05252
-4.13418
-3.21112
-12.267
-25.1351
-18.2299
-12.5133
-9.69024
-26.3709
-24.7966
-16.5657
-11.186
-8.65756
7.2486
-27.2672
-21.2765
-14.826
-11.5112
-43.1872
-36.1314
-23.6064
-15.8596
-12.2016
-51.8636
-43.0361
-27.7603
-18.38
-14.0607
-47.4483
-30.2361
-18.8439
-12.4957
-9.53345
-35.8936
-24.8968
-15.5408
-10.1757
-7.78341
-65.7914
-202.533
-124.405
-517.908
-78.8632
-716.891
196.555
-653.112
456.603
-122.431
-771.857
-1250.12
75.6297
-88.5517
-1145.93
-1783.66
-1422.56
-2020.09
-572.731
-135.058
-30.5181
-6.73835
-1.68658
-154.192
-83.6452
-11.691
-3.19983
-1.42423
-1770.28
-413.962
-93.7749
-20.5935
-5.1604
-371.269
-112.565
-28.7364
-6.1804
-1.69309
-2986.5
-697.895
-158.424
-34.902
-8.72688
-641.926
-199.544
-49.7734
-11.7082
-2.96289
-4031.34
-941.504
-214.387
-47.3606
-11.8559
-807.895
-260.661
-66.0244
-15.5628
-3.91023
-5086.78
-1194.15
-273.323
-60.6401
-15.2391
-965.479
-327.492
-84.1076
-19.9325
-5.04469
-6122.85
-1475.89
-341.775
-76.376
-19.2636
-1522.58
-463.182
-113.904
-26.0641
-6.50338
-5668.57
-1361.66
-314.095
-69.9313
-17.5901
-1196.57
-392.033
-99.1443
-23.1342
-5.78428
-6341.33
-1531.39
-355.285
-79.5076
-20.0798
-1714.76
-506.904
-123.017
-27.7796
-6.91565
-6629.5
-1588
-368.976
-82.532
-20.83
-1774.81
-527.049
-129.141
-27.1002
-7.14072
-537.468
-6730
-5964.92
-2201.08
-1558.57
-937.386
-3671.79
-2689.87
-6310.08
-5901.74
-2997.84
-2265.77
-416.12
-634.656
-1084.01
-1750.01
-2603.42
-3556.28
-299.432
-640.387
-1326.46
-2296.68
-3433.92
-4569.3
-317.094
-146.191
-542.396
-371.813
-994.661
-827.992
-1650.83
-1537.07
-2355.86
-2273.02
-3056.58
-2772.32
-4361.85
-4874.98
-5245.79
-7717.04
-8570.12
-9399.8
-5489.72
-5979.47
-5896.6
-5334.95
-4531.8
-3938.11
-376.036
-318.688
-242.149
-151.228
-51.4123
-573.184
-485.441
-368.612
-230.097
-78.2057
-978.355
-827.959
-628.266
-391.998
-133.206
-1577.89
-1333.94
-1011.31
-630.654
-214.26
-2343.79
-1978.31
-1498.02
-933.605
-317.146
-3193.35
-2688.68
-2032.53
-1266.12
-430.221
-270.469
-229.126
-174.028
-108.65
-36.9291
-578.093
-489.358
-371.419
-231.775
-78.7631
-1196.66
-1012.26
-767.844
-478.989
-162.754
-2069.87
-1749.11
-1325.7
-826.648
-280.857
-3090
-2607.14
-1973.89
-1230.33
-418.025
-4101.84
-3453.18
-2610.95
-1627.14
-553.111
-286.643
-242.984
-184.665
-115.349
-39.2224
-132.156
-112.029
-85.1415
-53.1821
-18.0838
-490.027
-415.145
-315.322
-196.872
-66.9235
-335.953
-284.655
-216.235
-135.016
-45.8975
-898.072
-760.322
-577.135
-360.17
-122.404
-747.711
-633.139
-480.662
-299.984
-101.951
-1489.09
-1259.35
-955.017
-595.601
-202.35
-1386.57
-1172.69
-889.253
-554.523
-188.375
-2121.77
-1791.44
-1356.58
-845.289
-287.076
-2047.04
-1728.01
-1308.04
-814.657
-276.575
-2744.9
-2310.65
-1745.69
-1086.49
-368.918
-2488.98
-2093.83
-1580.09
-982.099
-333.132
-3899.32
-3270.29
-2467.29
-1537.61
-523.376
-4322.88
-3602.59
-2712.48
-1695.74
-580.747
-4580.68
-3777.43
-2841.18
-1794.65
-626.241
-6534.86
-5299.5
-4005.96
-2609.9
-965.803
-6864.53
-5427.6
-4154.03
-2865.46
-1198.89
-7209.5
-5601.42
-4329.03
-3113.5
-1415.34
-4910.14
-4120.75
-3111.19
-1940.02
-660.485
-5318.08
-4443.5
-3350.46
-2093.89
-715.683
-5196.89
-4314.65
-3250.92
-2043.26
-704.961
-4626.57
-3803.4
-2868.81
-1828.04
-645.761
-3804.27
-3072.96
-2329.59
-1531.53
-573.902
-3187.95
-2527.08
-1927.81
-1312.42
-524.124
-438.236
-702.202
-1200.4
-1920.09
-2834.85
-3836.59
-330.625
-735.474
-1488.06
-2523.76
-3712.41
-4860.98
-338.443
-164.656
-607.858
-429.48
-1108.82
-931.918
-1821.64
-1697.87
-2602.02
-2548.44
-3372.27
-3185.88
-4651.54
-5142.51
-5490.29
-7863.85
-8634.16
-9419.56
-5736.16
-6124.85
-5919.95
-5259.37
-4426.74
-3890.37
-396.134
-335.84
-255.277
-159.476
-54.2256
-634.615
-537.914
-408.814
-255.374
-86.8322
-1084.36
-918.685
-697.919
-435.868
-148.191
-1733.25
-1467.35
-1114.11
-695.592
-236.479
-2556.06
-2161.53
-1639.93
-1023.64
-348.029
-3452.37
-2914.23
-2208.82
-1378.8
-469.037
-298.815
-253.308
-192.528
-120.27
-40.8925
-664.545
-563.178
-427.955
-267.313
-90.8887
-1343.83
-1138.2
-864.516
-539.87
-183.549
-2277.27
-1927.2
-1462.91
-913.319
-310.512
-3345.45
-2827.66
-2144.73
-1338.73
-455.213
-4371.32
-3687.82
-2794.34
-1744.37
-593.499
-306.021
-259.506
-197.298
-123.279
-41.9261
-148.91
-126.3
-96.043
-60.0204
-20.4147
-549.519
-465.916
-354.183
-221.288
-75.2529
-388.325
-329.314
-250.388
-156.459
-53.2095
-1001.99
-849.194
-645.311
-403.083
-137.057
-842.292
-714.003
-542.676
-339.009
-115.274
-1645.1
-1393.31
-1058.22
-660.785
-224.652
-1533.62
-1299.16
-986.84
-616.242
-209.506
-2347.51
-1986.24
-1507.42
-940.96
-319.886
-2299.82
-1946.36
-1477.3
-922.108
-313.443
-3036.67
-2564.78
-1944.34
-1213.44
-412.635
-2870.49
-2425.41
-1838.71
-1147.08
-389.892
-4170.59
-3510.13
-2657.62
-1660.78
-566.13
-4579.45
-3835.33
-2901.81
-1820.81
-624.753
-4824.47
-4007
-3034.46
-1926.15
-673.609
-6706.89
-5482.02
-4175.77
-2736.13
-1015.42
-6963.8
-5544.89
-4272.92
-2962.73
-1242.73
-7246.43
-5646.66
-4376.46
-3154.08
-1434.66
-5140.99
-4324.99
-3273.42
-2045.1
-696.98
-5459.42
-4573.66
-3457.9
-2165.69
-741.108
-5228.95
-4352.95
-3289.25
-2072.53
-716.197
-4569.45
-3765.73
-2849.3
-1821.63
-645.31
-3718.79
-3008.54
-2287.77
-1510.76
-569.001
-3148.69
-2496.79
-1907.56
-1302.07
-521.64
-19660.3
-14357.9
-5263.43
-4281.98
-3255.29
-4588.39
-4179.93
-12952.5
-14620.4
-11582.8
-13368.9
-8013.17
-11364.7
-6150.07
-6412.24
-4700.76
-20401.2
-11355.7
-4426.81
-7244.33
-9377.5
-6485.14
-7229.58
-5482.09
-3384.08
-4923.84
-5412.07
-5561.39
-19295.4
-12992.3
-12837.2
-9231.85
-9269.05
-9758.98
-4726.68
-6008.52
-7363.5
-14238.7
-12576
-10850.7
-10364.6
-9209.9
-9441.35
-6564.75
-5217.42
-4119.67
-2172.05
-4684.55
-3922.14
-2968.21
-1864.16
-640.519
-3844.24
-3238.75
-2452.86
-1532.07
-521.848
-2919.5
-2455.97
-1856.52
-1157.37
-393.643
-4127.12
-3481.55
-2636.64
-1644.51
-559.108
-3742.85
-3145.48
-2378.38
-1484.97
-506.001
-9623.87
-8150.82
-6873.74
-6372.83
-6492.42
-11027.8
-9658.25
-7947.71
-6457.36
-3893.89
-8397.59
-5946.94
-4547.01
-3229.82
-1429.47
-10043.6
-8404.02
-6677.38
-4967.72
-2429.18
-6804.66
-5487.41
-4076.06
-2563.65
-897.845
-8957.57
-6712.4
-4945.4
-3170.01
-1170.33
-5346.9
-4383.57
-3272.32
-2045.77
-704.984
-5553.86
-4539.96
-3384.32
-2116.59
-730.493
-4120.98
-3398.76
-2541.24
-1583.99
-542.36
-14544.3
-11836.1
-10069.5
-9159.4
-8633.19
-8890.25
-6870.32
-5294.18
-3698.31
-1653.9
-3840.97
-3150.48
-2361.38
-1488.59
-520.207
-6310.18
-5205.06
-3930.82
-2502.78
-886.789
-7950.17
-6479.09
-4939.26
-3258.6
-1245.29
-5630.41
-4641.84
-3519.52
-2260.57
-809.84
-6350.94
-5276.25
-4000.46
-2545.71
-894.712
-4846.2
-4035.9
-3048.9
-1919.95
-663.739
-2998.34
-2495.15
-1874.62
-1168.47
-398.896
-4395.14
-3682.81
-2779.34
-1734.59
-591.524
-4756.1
-3934.91
-2953.25
-1848.9
-636.5
-4914.31
-4088.13
-3082.02
-1935.34
-667.336
-13786
-11777.8
-10194.7
-9446
-8569.74
-9231.9
-6768.76
-5358.08
-4083.45
-2120.22
-9994.71
-8254.97
-6573.96
-5002.37
-2461.71
-7447.8
-5820.96
-4508.97
-3141.42
-1295.77
-7888.75
-6456.12
-4938.96
-3269.44
-1244.52
-7869.59
-6136.26
-4747.84
-3299.84
-1348
-4149.23
-3442.46
-2605.25
-1654.29
-580.157
-5354.12
-4482.85
-3386.68
-2119.59
-725.078
-6449.64
-5341.43
-4040.7
-2568.27
-901.55
-498.513
-1413.16
-2235.3
-3003.92
-3730.34
-4407.16
-2574.55
-6922.81
-6596.38
-2527.4
-8814.82
-7390.05
-8843.57
-9803.54
-2330.02
-1505.3
-5411.31
-3144.31
-10328.1
-7300.89
208.248
-2091.9
-5779.61
-5433.21
-2039.84
-7514.6
-6044.16
-7435.17
-8386.21
-1930.04
-893.522
-4647.81
-1656.51
-8586.92
-4377.14
1483.05
-1533.46
-4411.18
-4138.34
-1501.6
-5959.05
-3662.99
-6057.98
-6727.84
-1459.63
-812.97
-3302.73
-1719.11
-6884.42
-1781.04
1618.6
-1135.18
-3430.38
-3288.43
-1153.34
-4584.93
-2258.13
-5058.79
-5966.21
-1102.9
-852.896
-2426.38
-1734.32
-6083.15
-397.156
1216.46
-921.845
-2921.66
-2847.13
-977.638
-3704.89
-1883.25
-4555.91
-5804.15
-877.065
-926.88
-1755.63
-1664.19
-5322.27
-181.333
120.778
-817.135
-2617.65
-2622.9
-888.682
-3441.23
-2135.25
-4232.26
-5556.47
-680.945
-727.513
-1460.63
-1631.97
-5236.27
-954.039
-464.261
-1385.67
-3395.63
-4903.57
-1894.07
-5504.13
-9600.39
-7203.48
-10393
-1023.83
-738.32
-3910.94
-2456.52
-1248.86
-9283.28
-4868.7
-1294.25
-3178.72
-4327.05
-1652.78
-5110.31
-8716.45
-6530.8
-8893.12
-1052.54
-661.138
-4070.29
-2342.84
-428.02
-9147.59
-3707.31
-1147.44
-2827.59
-3575.36
-1339.38
-4687.65
-7863.3
-5602.25
-7891.26
-944.925
-761.782
-3521.58
-2461.64
-631.794
-7467.66
-3578.84
-1003.41
-2572.95
-2999.36
-1100.34
-4411.76
-7213.88
-5033.11
-7228.3
-878.155
-780.04
-3296.99
-2591.84
-413.163
-6989.83
-3654.98
-914.949
-2331.48
-2685.72
-971.307
-4037.23
-6677.02
-4625.53
-6910.26
-830.011
-840.691
-3025.8
-2818.59
-539.698
-6762.35
-3761.15
-854.293
-2091.48
-2503.05
-898.845
-3742.43
-6611.13
-4317.1
-6703.26
-863.754
-968.279
-2707.95
-2684.01
-785.027
-6938.7
-4169.79
5887.82
7433.63
15437.7
22544.7
22947.5
39554
17656.3
44956.8
14395.9
31602.3
21544.1
32694.9
19321.2
25367.8
7295.87
8266.69
14415.6
16496
18648.5
18500.2
14715.2
18206.5
21686.9
19484.4
4840.77
3654.77
5943.85
3996.47
12156.8
9653.34
20834.8
15033.4
16103.8
16744.4
17852.2
16959.6
6201.27
4870.66
38247.6
51212.7
24700.8
30334.5
51524.5
66847.9
26662.7
30521.5
28311.1
40007.7
24682.2
32742.2
14414.9
23270.8
2590.25
886.031
2661.42
968.629
8265.08
3328.09
11406.9
4187.4
8076.97
3102.56
8635.52
2764.53
14764.4
4692.2
19063.6
6424.19
23484.8
11629
21496.4
12749.9
22098.4
14291.1
19428.7
14650.9
16840.2
9997.17
16823.3
8541.79
22173.8
14215.1
22221
14356.7
20512.2
15528
20759.6
15609.2
18198.3
11572.1
18853.3
11865.5
17169.1
7407.52
7905.78
9589.77
17242.7
8086.67
6871.98
9680.64
18193.5
7385.59
8981.94
9684.7
19101.5
7570.4
9781.22
10132.5
3343.72
3606.99
1142.76
2166.34
10396.5
10990.7
3986.88
7016.33
13365.3
14885.3
6371.8
10806.5
12242
1187.54
13379.9
16371.6
8818.46
852.004
7504.99
11956.4
19201.6
13112.1
9674.6
11686.2
10139.2
8677.86
13578.3
3142.6
2580.17
1770.83
1782.62
9746.63
8280.21
5856.83
5564.29
12170.5
10406.8
7586.93
6824.42
5883.74
7458.63
12092.7
12498.8
13838.9
12606.6
15582.9
13622.7
10396.2
8744.47
8977.99
9545.2
11819.3
9472.85
10726.5
7943.71
9238.48
6481.94
10663.8
7037.98
10158.9
4918.34
8691.84
9505.27
12472.1
16368.3
13710.5
20017.2
6890.92
7736.65
8978.75
3073.5
7734.43
14969.7
7331.12
16019.4
13568.3
24689
13802.1
26167.5
5814.51
12809.6
5271.45
13621.9
8006.31
6139.09
11081.9
4462.25
8296.39
1857.73
9693.85
944.268
7673.16
9121.9
11601.6
5397.72
6332.19
10728.9
10252.3
7060.52
2043.36
1829.3
1684.13
1504.68
1400.78
1278.32
6848.42
5693.38
4981.41
4373.96
3570.29
3129.58
8444.53
7379.02
6858.66
5248.29
4360.03
4153.47
6626.55
5950.89
5836.88
10971.2
8499.02
7225.57
10237.4
7717.39
6338.39
10767.4
8642.5
7580.16
6554.36
4408.8
3483.78
15792.5
13863.5
12136.9
10062.5
8511.51
7177.44
8837.75
7002.7
5696.03
7340.25
5410.87
4247.72
7418.13
4198.52
2428.08
10215.4
13890.9
8048.83
10456.3
10937.5
16115.5
9746.18
14246.5
94.692
650.249
-407.587
65.9553
2967.21
3447.29
1230.59
747.374
682.884
2403.53
9321.53
13644
6622.65
3594.82
9746.25
9673.58
14947.9
16459.9
-589.196
-4041.1
7492.66
7071.45
7050.59
5443.74
905.029
506.103
556.208
222.69
2079.49
265.619
-269.111
-818.258
9203.18
2458.44
6191.86
1656.39
8907.24
2739.95
10780.8
3505.98
8737.99
11863.4
8092.66
11588
13930.5
14809.2
13308.3
14046.2
5669.85
9500.4
6531.83
9425.96
8587.51
11177.1
9474.08
11307.2
13867.3
13810.5
14525
13882.8
5724.52
9209.99
6229.21
9395.82
25.9605
1538.56
7630.8
5000.56
-546.567
1120.53
7070.72
4434.2
472.546
1779.93
7813.03
5439.54
929.666
2051.97
7873.79
5648.36
-630.349
-728.294
172.803
35.8526
-2825.93
-2876.41
-151.64
-288.143
-488.214
-1898
1832.61
1205.84
-10226.5
-9458.05
-5531.35
-4175.25
-305.86
-10395.1
-10796.7
-4308.93
-6337.84
-677.539
10109.1
8023.2
7268.55
6956.17
4436.3
-775.169
-734.037
-28.0889
86.6936
-2525.11
-2559.12
25.5723
306.585
-2558.35
-3210.96
871.038
1266.88
-5131.9
-2391.6
-8221.4
-5237.99
-3648.99
-2820.17
-4087.69
-3618.96
677.718
1718.8
3733.51
2363.24
1046.22
-1044.06
1101.73
-723.936
1935.18
562.509
2478.21
2865.23
5287.56
4868.7
10021.9
6086.21
8087.65
8198.95
12280.8
9986.49
8066.57
4838.21
4089.42
4098.61
11801.1
5263.51
12980.9
5899.54
13694.5
10192.8
14615.7
10915
9750.51
3974.74
10916.5
4593.25
6612.35
5393.42
5397.75
8021.77
4361.28
4973.16
4647.58
7442.15
7593.69
5365.3
6081.18
9194.88
9152.97
5832.29
7491.65
9503.29
-782.017
-837.076
-948.867
-28.6155
-307.714
-345.247
-2968.46
-3237.09
-3267.01
-147.055
-879.067
-900.315
-3765.03
-4303.3
-4458.36
741.936
-858.139
-1191.1
-1327.9
-1150.83
-851.393
-3958.94
-4097.45
-3849.84
-3243.95
-3739.69
-3707.33
-4010.91
-4417.08
-4350.99
1592.16
-362.91
-525.209
3421.79
1925.21
988.884
-1101.12
-2327.73
-2983.74
-1020.94
-2620.01
-3320.59
-396.82
-2156.04
-2668.37
2660.98
-533.483
-921.36
-18.7227
-36.8422
-52.4206
-80.3592
-256.408
-150.052
-128.216
-127.977
7.04811
-80.8894
-198.716
-319.649
-439.717
-297.056
-339.697
-379.524
260.795
-29.4554
-281.451
-563.415
-150.473
-244.429
-329.069
-385.553
-31.7802
-148.689
-163.924
-165.088
229.378
5.60073
-132.558
-231.137
1024.08
209.88
-120.028
-355.814
1602.91
372.819
-21.0312
-603.235
725.82
90.4504
-204.003
-511.292
1323.58
284.601
-1.9014
-530.19
1084.6
250.01
-144.06
-441.796
1793.31
442.867