/*--------------------------------*- C++ -*----------------------------------*\
  =========                 |
  \\      /  F ield         | OpenFOAM: The Open Source CFD Toolbox
   \\    /   O peration     | Website:  https://openfoam.org
    \\  /    A nd           | Version:  11
     \\/     M anipulation  |
\*---------------------------------------------------------------------------*/
FoamFile
{
    format      ascii;
    class       volScalarField;
    location    "2.6";
    object      gradTy;
}
// * * * * * * * * * * * * * * * * * * * * * * * * * * * * * * * * * * * * * //

dimensions      [0 -1 0 1 0 0 0];

internalField   nonuniform List<scalar> 
5712
(
11487.5
6623.53
18640
12209.2
20325.3
15039.5
31931.6
39530
41957.8
51298.1
27124.4
23555.3
17234.9
13649
8647.1
5847.31
19331.1
19820.6
16630.1
19562.6
26109.5
23368.7
30075.9
24393.1
8127.68
5872.97
4560.9
3386.44
9743.17
7945.04
5897.5
4756.89
17602.9
18322
18027.6
15299.2
14111.1
10974.4
11019.1
12500.9
17769.9
17667.7
37187.9
38429.6
26411.1
27182.8
14997.9
12649.6
16380.7
11688.7
7620.04
7809.63
6192.74
8518.73
3236.1
3859.55
8500.33
11467.6
5049.44
5849.84
9454.48
15632.5
6536.66
10612.6
2499.57
6326.21
2078.34
4728.52
17517.4
21617.9
18013
21489.3
21451.2
21692.8
21781.6
21373.1
15289
20687.5
15770.5
20458.2
17713.5
21318.9
17690.6
21256.2
21922.7
21073.1
21827.1
20858.2
14106.7
20761.2
13607.5
20827.9
17100.4
19935.7
21601
29943.3
18096.1
22920.6
21392.9
32393.5
16222.8
17596
21699.2
28853.1
16054.2
16488.3
21938.6
28666.3
4970.99
6452.78
12636.7
21842.1
6207.73
7019.39
16371.4
25007.2
7798.28
7863.87
20895.6
28184
24081
26009.5
20233.6
19411.8
27750.9
26240.7
24671.1
20678.5
17841.9
31562.6
23883
23481.2
20805.5
20489
36310
1946.93
2328.86
4129.24
9221.83
2777.26
3120.18
5763.4
10451.8
4179.72
3531.98
7909.89
12147.1
26111.1
26031.3
23460
23301
19937.9
18472.2
15032.7
13394
10482.7
14390.1
23710
23089.8
23792.1
23583.9
20562.9
19403.6
16892.4
15207.9
11210.1
14627.1
23482
26504.1
23386.2
27110.9
22792.1
23697.8
22214.2
23804.2
21236.6
21631.2
21072.2
21021.8
23189
27207.3
23068.6
27165.6
21544.5
24065.4
21351.5
23992.3
21318
21583.3
21303.9
21563.7
17790.6
16923.5
11441.1
12680.2
17654.9
16459.5
11254.3
12671.9
18049.8
16887.2
11698.1
12760
18124.7
16721.1
12065.7
12780.9
1612.97
1118.87
790.769
951.416
674.433
632.627
2232.92
1381.8
1065.68
1891.4
1548.91
1356.1
2639.85
2272.09
2310.69
3342.05
2784.32
2526.09
25207.4
23106.4
21580.6
23092.8
21706.8
20528.2
16512.5
15547.2
15023.8
11118.2
9824.99
9287.01
5081.9
3836.49
3289.22
22721
21371.8
20131.9
23188.8
21470.3
20062.7
17082.6
14949.8
13723.3
11084.7
9062.27
8242.53
5414.44
3827.23
3110.27
26570
26099.9
28866.6
25992.4
29707.9
26016.2
35775.7
27323.6
20646.3
21056.6
20358.5
18941
23169.7
21910.5
22700.1
19441.2
22450.9
22359.3
20740.3
22275.5
27777
24832.8
27325.1
27713.7
29612.1
30593.1
22745.3
23584.9
20407.7
19798.4
24827.6
25441.1
16256.9
8607.37
15140
9551.18
16490.3
8682.34
15079
9480.76
16293.2
8733.42
15060
9892.51
14623.9
10357.9
14787.5
10270.9
20965.3
18023.1
20771.3
17952.6
23101
20943.6
23256.3
20687.9
20370
15029.3
21331.1
14871.7
21181.7
17839.7
21424.6
17628.1
23802.3
20487.1
23793.4
20211.5
20122.4
15051.6
20039.8
14952.5
13349.3
8760.63
11882.2
7385.27
12476.8
7831.75
11442.8
6881.23
13652.6
9323.31
12058.3
7616.19
13656.9
9674.54
12020.6
7668.9
2497.36
1268.27
4449.48
2185.3
2677.55
1590.37
4752.63
2697.54
3329.77
2468.64
5299.2
3677.28
13147.8
20295.7
9444.14
9035.85
6198.87
19947.3
13960.8
8171.4
8201.92
5045.87
20658.8
16346.2
13031.4
10104.7
5993.68
645.095
491.59
1071.61
704.972
974.798
671.112
1699.51
1309.61
1779.59
1433.46
2676.87
2146.46
20385.1
19994.9
13926.8
13595.7
9085.53
9399
7634.54
7241.24
4271.53
3496.85
19051.7
17564.7
14885.4
13324.8
11654.9
10622.7
8829.65
8234.85
5290.67
5460.35
15178.6
12560.4
15227.3
12201.4
18098.6
15238.2
18001.6
14944.5
12848.1
10705.9
12493.2
10792.7
15202.1
11976.3
15099.8
11948.1
17902.2
15181.9
17717.1
15121.9
13061.6
10511.1
13035.8
10651.4
9996.33
8732.98
6337.47
7000.5
9650.55
8576.46
6027.2
6652.87
10420.2
8897.93
6501.71
7439.1
10679.1
8903.48
6773.96
7551.77
2043.54
1814.12
1508.04
9056.23
4816.31
3936.84
1966.75
1964.59
1752.65
9742.58
5662.33
4806.34
2678.99
3041.01
3134.04
10644.8
7040.79
6291.78
19177.7
18227.1
17476.1
13362.5
13199.3
13056.9
9929.03
9999.48
10080.2
8724.43
8575.37
8426.09
12001.8
8652.9
7857.11
16301.2
15319
14611.1
12398.5
11791.7
11421.4
10542.4
9996.38
9648.87
10396.6
9377.59
8749.4
14549.4
9750.33
8813.49
4606.39
2901.26
2174.75
2023.09
5253.47
3192.05
2310.08
2071.23
4622.34
2890.91
2177.57
2039.4
5371.39
3259.62
2352.43
2088.5
4589.27
2841.53
2162.8
2013.46
5475.25
3294.3
2386.77
2065.02
5925.94
3513.13
2465.57
2177.96
6114.8
3662.08
2559.4
2274.27
4912.66
3038.67
2245.82
2030.15
3838.98
2568.76
2018.1
1951.8
4227.16
2702.45
2067.75
1869.48
3475.32
2394.57
1926.08
1865.53
5368.55
3291.02
2374.8
2137.74
4053.42
2695.75
2077.87
2021.2
5623.54
3460.39
2463.56
2209.54
4142.53
2785.06
2124.67
2055.32
3329.84
2416.34
1946.11
1909.63
1890.8
1824.98
1664.83
1790.6
3326.82
2395.14
1938.33
1902.85
1992.58
1852.02
1674.88
1800.69
3399.25
2380.92
1936.55
1904.28
2326.03
1949.18
1712.44
1847.34
3314.56
2291.49
1881.39
1935.66
2606.45
2012.01
1755.52
1827.48
2984.56
2189.99
1819.29
1833.84
365.794
1336.31
1275.02
380.699
-1425.78
1056.83
1107.08
413.161
623.354
1419.99
1306.41
403.523
-1089.06
1151.58
1135.3
422.686
1103.29
1567.31
1358.14
402.784
-525.058
1310.17
1178.99
428.686
1681.94
1738.88
1425.11
439.543
59.1845
1482.21
1238.12
448.477
2043.91
1890.42
1506.77
519.524
169.27
1605.73
1292.3
465.629
2184.41
2048.28
1547.9
490.454
-262.088
1719.95
1389
495.022
2129.57
1978.32
1517.22
491.16
-284.262
1666.42
1341.09
477.716
2190.51
2097.75
1578.71
454.4
-348.388
1767.15
1424.35
498.754
2243.74
2151.96
1627.22
466.357
-241.984
1823.51
1466.78
512.487
1994.73
1581.69
1123.41
667.931
221.36
1971.39
1578.43
1124.21
668.782
221.656
2018.85
1593.77
1129.47
670.81
222.209
2000.02
1593.89
1132.35
672.737
222.837
2063.51
1611.06
1137.36
674.461
223.279
2034.92
1612.53
1141.99
677.428
224.247
2067.88
1634.1
1154.79
684.019
226.272
2117.03
1665.41
1173.18
693.479
229.178
2110.14
1632.02
1148.79
680.172
225.018
2254.5
1658.02
1156.28
683.017
225.807
2119.66
1626.63
1143.25
676.985
223.999
2251.03
1648.65
1150.14
679.789
224.798
2130.53
1651.08
1160.29
686.132
226.859
2295.54
1676.49
1166.75
688.397
227.471
2177.89
1681.41
1177.59
694.956
229.57
2345.83
1703.52
1181.73
696.025
229.825
2051.21
1589.58
1123.36
667.246
221.1
2158.83
1598.35
1123.59
666.85
220.944
2073.69
1599.1
1127.86
669.333
221.706
2176.57
1605.48
1127.02
668.453
221.412
2119.15
1615.06
1134.97
672.612
222.658
2215.64
1618.48
1133.15
671.334
222.251
2194.88
1633.56
1142.19
675.829
223.585
2262.42
1632.51
1140.18
674.677
223.216
2267.28
1643.13
1146.3
677.749
224.151
9073.15
13889.2
9554.52
14210.4
10274.9
14644.9
10802.6
14958.8
10445
14472.6
9795.8
11014.7
9765.14
11468.8
9875.82
10961.1
10060.4
11114.9
8003.31
1367.36
291.296
65.1338
11.505
8890.65
2526.21
611.844
138.42
24.443
8109.58
1359.95
287.5
64.0232
11.2765
8997.02
2521.86
608.213
136.909
23.9646
8230.05
1360.38
284.987
63.1606
11.0983
9106.6
2523.02
604.866
135.596
23.6936
8212.13
1327.74
275.509
60.8794
10.6874
9057.39
2484.46
593.16
132.696
23.1569
7847.66
1236.82
256.019
56.7262
9.9785
8634.55
2371.99
567.977
127.39
22.2601
7075.72
1159.66
247.842
55.7981
9.88853
7237.92
2084
511.995
116.687
20.5783
7291.98
1175.77
248.301
55.5506
9.81305
7623.36
2190.66
533.49
120.634
21.1638
6999.93
1158.49
248.789
56.1513
9.96116
7120.9
2039.17
501.517
114.668
20.2791
6985.33
1151.55
247.15
55.8117
9.89322
7143.27
2031.51
498.445
114.248
20.1737
32897.1
46530.7
45491.4
31947.9
18879.9
19851
27840.5
29041.1
21738.8
24327.5
34521.6
46999.9
43601.6
57671.4
28498.9
32442.2
22399
23900.4
12169.7
13332.2
4946.16
3307.8
953.981
751.948
840.901
744.465
891.321
4885.81
4881.4
2975.68
4199.09
4064.42
1793.61
2443.08
2243.11
1502
1722.12
1426.4
4392.37
2446.53
1613.24
1434.98
1793.47
1565.13
1245.66
1188.36
1128.88
999.552
1329.01
1205.39
4570.69
2820.4
3222.27
2094.96
1749.66
2416.75
1272.3
1021.34
1391.12
10120.4
10348.4
10713.7
12229.1
20513.4
7376.88
8575.36
9517.8
10838.1
12749.1
2515.25
3608.7
4453.13
5036.67
5341.04
1996.35
2891.92
3593.86
4077.67
4325.78
2229.37
3221.33
3991.47
4516.62
4783.44
1977.98
2867.78
3564.71
4043.07
4286.92
2358.07
3397.78
4202.64
4753.36
5035.32
10334
10770
10787
11629.4
18514.6
10293.2
10542
10369.4
10760.8
12394.6
6879.65
8245.75
9013.48
9745.32
10590.6
9136.69
9701.69
9573.55
9604.23
9908.35
8833.58
9453.42
9284.17
9140.15
9191.93
4491.17
5984.75
6963.91
7608.19
7971.39
5838.47
7293.52
8109.54
8666.1
9058.48
5426.71
6877.15
7675.66
8137.76
8386.15
3841.88
5269.52
6255.48
6893.63
7223.67
4328.85
5790.62
6734.7
7320.66
7620.31
3669.53
5071.05
6048.2
6674.18
6988.79
9475.6
10222.1
10547.6
11662.2
18793.6
5853.56
7379.71
8387.1
9284.81
10168.8
4100.09
5582.83
6614.99
7321.06
7724.99
3688.06
5104.93
6131.89
6845.32
7247.55
4493.66
6017.2
7083.51
7878.33
8416.21
3991.68
5476.15
6559.1
7351.05
7835.64
3236.56
4554.24
5550.2
6256.82
6650.91
3102.73
4389.2
5355.97
6021.08
6374.07
2958.7
4202.1
5128.92
5746
6058.11
2634.06
3772.3
4639
5224.51
5522.34
3441.57
4806.37
5793.29
6450.56
6793.26
3143.79
4437.75
5399.57
6051.29
6392.2
9593.76
10106.2
10518.1
11913.9
19713.4
6498.85
7875.6
8908.28
10110.9
11597.9
7532.76
8939.09
9754.8
10988.4
13507.2
5137.5
6724.33
7885.68
8903.4
9750.36
4405.22
5951.32
7082.41
7966.32
8570.75
5793.03
7346
8425.52
9441.95
10458.2
3303.26
4640.34
5641.98
6344.72
6732.57
2686.84
3840.44
4720.34
5321.02
5631.44
3585.71
4986.28
6016.99
6742.65
7153.9
18022.4
11955.7
18577.1
13251.8
24107.3
34342
25176.8
34159.2
19115.4
20251.9
16386.6
19545
21758.1
20727.3
27630.4
22706.9
13862.8
12908.9
6791.4
5775.59
15118.9
13773.3
7806.12
6352.54
18679.4
20209.1
19179.8
17528.7
19512.2
12856.6
10803.8
12457.1
17651
17626.4
36608.7
38296.9
25655.5
26973.8
15552.1
12765.3
17014.4
11796.9
8240
7957.99
13523.3
14929.4
5661.77
6161.7
14898.9
16950.7
7069.52
7788.56
14241.5
19826
8274.65
12718.7
2899.07
7048.11
2157.69
4869.2
17843.2
20425.3
17778.9
20789.2
19525.4
19830.8
20547.2
20325.5
16182.3
20489.2
18350.9
20199.5
17486.2
20942.7
17604.2
21134.2
21283.6
20535.4
21638
20691.2
14354.2
20627.9
13640.9
20777.2
17952.8
21167.7
21814.3
30292.5
19544.7
25024.7
21869.8
33149.4
16604.5
18181.5
21771.7
28999.9
16150.5
16649.3
21949
28703.5
18534.1
20034.1
23174.6
34308.5
18672.4
19126.9
24818.5
34779.4
18439.2
18134.6
26738.4
34555.8
18055.8
18992.9
19216.1
20360.6
30448.3
18270.7
17014.5
20531.5
18639.9
34762.5
19060.3
19813.7
19579.8
21123.3
37647.3
11222.8
10298.8
10339.7
13314.6
12280.6
11285.8
10720.1
13696.3
13507.7
11754.3
11225
14020.4
17758.3
17149.2
16608.9
16218.9
19083.4
17916.2
15718.4
14194.2
11768.4
14645.9
18761.9
18625.6
19805.8
20000.8
18929.7
17865.5
17106.9
15221.1
11601.4
14181.8
21546.1
24291
22397
25915.5
20440.8
21395.5
21073.2
22661.4
20685.7
20927.5
20139.1
19893.8
22701.8
26623.4
22919.9
26990.9
21007.5
23508.5
21191.8
23829
21017.4
21219.5
21208.3
21454.1
17636
16637.9
11464.6
12593.2
17535.8
16137.2
11419.6
12609.9
17936.2
16715.9
11684.2
12695.6
18083.4
16665.4
12055.7
12756.1
9451.03
9593.2
4050.87
3737.33
10543.1
10209.8
4539.61
4349.84
10281.9
9653.94
5174.22
5001.5
16969.4
16511.3
16483.1
16590.3
16371.2
15912.6
12268.4
11014
6096.71
5048.72
19018.1
18306.6
20219.4
19487.7
15988.1
14874.3
11447.9
9876.16
5613.09
4244.65
21772.4
20754.6
26614.6
23315.5
24179.1
21608
33010.2
24975
19917.3
16455.3
21651.2
17230.1
19810.3
16744.7
21746.9
17456.4
20301.4
18050.8
18428.3
17197.7
20972.2
22166.5
25970.7
27299.8
28458.9
30256.1
21390.3
23103.8
19371.1
19501.7
23302.9
24927.2
13414.4
9824.75
13821.3
10049.6
13699.1
9733.77
14001.8
9894.4
13653.3
9589.16
13974.6
10087.9
13999.9
10394.5
14585.8
10276.1
17108.9
16686.9
18843.8
17125.9
19561.3
18797.7
21365.2
19489
18565.5
14720
17699.9
14573.1
20222
17399
21138.6
17494.2
22875.4
19880.5
23523.6
20027.6
19228.8
14857.3
19779.8
14891.9
12942
9175.02
12086.4
7759.26
12424.3
8899.4
12045.9
7679.18
13334.6
9475.82
12121.6
7789.76
13544.4
9710.54
12036.4
7725.48
12978.2
13282.7
9211.35
8461.43
13134.6
13403.4
9063.68
8389.13
13117.1
12876.4
8829.93
8290.75
15218.9
17885.2
16056
11945.4
8581.96
16617.2
15622.7
17529.6
12043.1
8284.57
18317
16324.9
14552.2
12204.3
7608.38
14066.1
15510.7
8475.64
9300.36
13902.9
15058.2
8390.1
9155.47
12950.9
13658.3
7997.65
8230.69
16502.2
15746.6
15013.5
14591
15682.7
16323.5
12275.2
13293
7741.44
7645.88
16713.6
15446.3
15173.2
14035.9
13740.2
13357.1
11628.1
11869.4
7105.54
7816.3
14845.2
12903.7
14904.7
12310.3
16667.5
14288.3
17181.1
14451.7
13006.6
11268.4
13100.6
12068.3
14999.9
12022.6
15036.8
11960.5
17490.2
14939.7
17593.9
15052.7
13076.3
10755.8
13026.3
10713.3
10496.2
9535.74
6823.58
7739.61
10792.7
10251.6
6992.13
8141.44
10619
9256.99
6726.69
7836.47
10735.7
9008.92
6850.84
7677.26
18836
18826
26378.9
22062.6
18008.4
18149.7
25268.1
21067
15767.5
16522.6
23156.8
19568.7
15367.6
14921.2
14305.1
14198.8
16721.3
17294
15703.7
15777
21234.4
17936.3
14574.2
13962.9
13569.1
13495.4
14033.9
14489.8
15264.5
14994.4
20843.9
16538.9
6099.33
3906.05
2793.33
2470.42
6362.5
4055.16
2883.46
2490.8
5973.85
3824.19
2741.67
2446.77
6297.6
4006.72
2846.58
2451.76
5742.81
3661.48
2652.36
2365.69
6193.55
3895.25
2798.48
2369
6345.68
3890.94
2747.36
2396.88
6255.27
3793.35
2654.28
2350.41
5515.32
3510.44
2582.64
2299.91
4238.07
2901.83
2252.1
2153.71
5173.73
3372.7
2501.56
2194.94
4128.38
2909.03
2235.02
2103.03
5701.72
3572.57
2587.24
2311.63
4268.54
2883.07
2225.75
2159.95
5726.62
3554.69
2536.84
2270.57
4210.2
2845.99
2175.37
2103.04
5546.3
3622.16
2621.37
2385.85
4611.07
3201.78
2395.25
2296.58
5379.13
3536.62
2569.94
2346.29
4495.59
3154.02
2369.17
2284.75
5143.45
3397.9
2500.83
2304.74
4411.17
3092.85
2335.92
2283.19
4649.46
3143.71
2362.52
2284.41
4224.3
2989.25
2279.33
2176.69
3954.38
2887.19
2201.15
2097.04
3211.9
2772.87
1950.24
537.518
1023.56
2494.43
1792.93
609.172
3257.52
2772.7
1948.53
556.555
1213.55
2500.45
1789.68
611.219
3337.25
2754.17
1925.74
528.119
1477.11
2490.9
1765.64
596.316
3306.27
2700.89
1924.91
557.062
1522.63
2445.13
1743.73
595.163
3025.49
2588.62
1910.37
636.59
964.279
2328.37
1704.36
590.628
2476.46
2340.94
1797.51
583.844
-138.659
2029.64
1608.64
571.705
2672.82
2446.6
1852.1
599.855
53.7623
2157.88
1651.14
577.35
2333.94
2257.4
1731.31
514.743
-312.472
1934.99
1553.66
546.165
2284.47
2202.72
1677.76
486.906
-238.278
1875.9
1508.71
528.17
2352.04
1801.04
1248.12
730.889
240.495
2297.62
1786.65
1244.02
729.496
240.129
2350.87
1793.98
1243.14
728.187
239.649
2288.15
1775.82
1236.91
725.72
238.958
2366.86
1787.89
1237.27
724.841
238.59
2278.11
1763.41
1228.52
721.257
237.583
2235.42
1738.89
1215.12
714.628
235.592
2178.65
1704.94
1196.05
705.11
232.725
2333.75
1768.55
1226.17
719.243
236.897
2468.1
1779.69
1224.3
717.254
236.211
2404.13
1788.71
1234.1
722.718
237.893
2526.64
1794.75
1231.23
720.518
237.166
2278.34
1744.83
1213.8
713.211
235.099
2433.91
1759.03
1213.21
711.843
234.603
2229.12
1713.91
1196.23
704.418
232.458
2393.39
1732.28
1197.99
704.261
232.342
2456.81
1821.96
1252.97
732.334
240.855
2629.57
1840.77
1256.36
733.25
241.078
2461.74
1817.55
1249.47
730.385
240.236
2631.1
1836.85
1253.59
731.745
240.605
2481.08
1811.53
1243.94
727.292
239.255
2638.66
1829.24
1248.32
728.939
239.723
2535.13
1809.13
1238.97
724.353
238.312
2649.99
1818.16
1241.81
725.559
238.654
2592.78
1804.99
1235.57
722.523
237.742
11202.8
14732
11267.6
14747.3
11407.5
14761.7
11237
14598.9
10523.7
13902.3
9794.35
10956.5
9809.9
11371
9863.88
10923.1
10054.5
11101.4
8597.09
1428.69
299.777
66.4992
11.6961
9256.59
2613.97
628.469
141.334
24.8591
8565.81
1406.05
293.905
65.07
11.4248
9221.51
2583.04
620.446
139.116
24.2829
8465.69
1382.47
288.107
63.7
11.1778
9125.25
2545.19
610.567
136.751
23.8695
8239.49
1327.77
275.539
60.921
10.697
8906.61
2472.54
592.836
132.832
23.1903
7786.1
1227.16
254.451
56.4656
9.94117
8440.23
2345.88
564.416
126.886
22.1953
7048.03
1154.25
246.617
55.5299
9.84334
7196.84
2071.45
509.005
116.053
20.4742
7254.39
1167.92
246.647
55.2187
9.76013
7549.09
2171.05
529.521
119.892
21.0517
6982.2
1155.24
248.045
55.9824
9.93189
7097.23
2032.06
499.729
114.267
20.2105
6979.16
1150.44
246.898
55.7539
9.88305
7135.21
2029.2
497.858
114.113
20.1502
32442.5
46220.8
44420.3
30584.6
23933.4
28457.6
23149
28351.8
26763.9
42348.5
28354.7
43349.4
267.211
284.707
323.717
386.764
478.189
602.995
282.006
299.935
339.744
403.487
494.076
614.903
256.027
250.508
274.641
271.014
316.265
317.034
384.059
393.332
481.231
501.556
607.499
631.058
766.957
976.2
1247.79
1608.08
2023.56
2322.36
769.246
959.255
1186.25
1441.07
1684.91
1843.08
715.506
1049.89
1319.57
1508.57
1605.91
762.127
1117.8
1404.32
1604.94
1708.18
866.096
1269.24
1593.31
1819.84
1936.3
1033.87
1513.05
1896.98
2164.7
2302.17
1276.43
1863.99
2332.45
2658.1
2825.12
1605.75
2336.69
2915.35
3316.32
3522.03
754.964
1107.46
1391.57
1590.57
1693.01
802.678
1176.82
1477.96
1688.67
1797.06
908.625
1330.81
1669.78
1906.54
2028.21
1077.96
1576.29
1974.92
2252.69
2395.31
1317.81
1922.32
2403.43
2737.78
2909.41
1635.95
2377.67
2963.98
3370.64
3579.77
685.615
1006.19
1264.86
1446.22
1539.63
670.846
984.575
1237.79
1415.35
1506.81
735.269
1078.63
1355.39
1549.25
1649.03
725.573
1064.47
1337.69
1529.11
1627.64
846.292
1240.54
1557.67
1779.43
1893.46
848.36
1243.62
1561.61
1783.98
1898.31
1026.86
1503.28
1885.25
2151.67
2288.45
1051.61
1539.44
1930.49
2203.16
2343.09
1284.91
1877.11
2349.5
2677.78
2846.02
1339
1955.67
2447.16
2788.35
2963.04
1618.52
2356.72
2941.24
3345.65
3552.62
1681.17
2447.42
3053.28
3471.51
3685.07
2034
2942.65
3654.83
4147.72
4402.07
2570.61
3683.22
4544.12
5143.9
5460.18
3245.07
4574.36
5586.96
6310.94
6715.83
4092.4
5613.69
6754.69
7627.52
8185.25
4993.17
6593.68
7783.66
8804.49
9601.27
5612.63
7224.04
8423.45
9546.68
10536.3
2038.62
2946.76
3658.43
4152.19
4407.93
2527.21
3623.8
4474.27
5067.9
5380.95
3098.18
4391.81
5383.55
6087.44
6472.65
3719.25
5192.38
6309.23
7127.83
7605.11
4291.15
5891.7
7095.44
8016.69
8598.08
4653.88
6322.6
7574.48
8563.46
9220.97
270.191
293.753
339.313
409.658
509.342
643.438
285.053
309.17
355.539
426.345
524.421
652.688
259.046
253.64
283.869
280.634
332.307
333.888
407.934
418.751
514.103
536.286
651.751
678.997
816.042
1029.73
1298.57
1646.04
2043.63
2328.01
813.067
1005.64
1229.85
1475.74
1706.4
1850.21
723.506
1061.71
1334.55
1525.82
1624.34
786.489
1153.89
1450.12
1657.72
1764.62
908.145
1331.65
1672.69
1911.48
2034.39
1095.73
1605.2
2014.63
2300.93
2448.22
1360.93
1990.62
2495.1
2847.35
3028.57
1716.1
2503.61
3131.71
3569.89
3795.72
763.16
1119.6
1406.98
1608.35
1712.02
827.578
1213.77
1524.95
1742.9
1855.1
951.264
1394.22
1750.6
1999.99
2128.33
1139.8
1668.59
2093
2389.64
2542.27
1400.2
2045.97
2562.5
2923.12
3108.79
1739.06
2533.69
3166.31
3607.85
3835.87
693.723
1018.17
1280.02
1463.66
1558.25
679.259
996.993
1253.5
1433.41
1526.09
760.1
1115.36
1401.95
1602.86
1706.33
751.451
1102.73
1386.17
1584.9
1687.24
889.515
1304.62
1639.09
1873.33
1993.91
893.762
1310.92
1647.09
1882.55
2003.74
1091.34
1599.26
2007.69
2293.36
2440.3
1120.29
1641.72
2061.04
2354.29
2505.11
1374.1
2010.82
2521.32
2877.76
3061.03
1433.4
2097.62
2630.08
3001.73
3192.74
1739.4
2539.86
3178.99
3624.59
3853.86
1812.44
2647.11
3313.52
3777.79
4016.38
2169.23
3150.23
3927.67
4470.94
4753.02
2720.44
3918.53
4859.84
5523.82
5876.34
3391.4
4813.18
5917.75
6718.55
7168.57
4208.51
5816.02
7048.27
8002.05
8611
5061.89
6724.72
7983.1
9068.46
9910.83
5634.41
7268.72
8493.59
9641.82
10650.3
2159.11
3131.22
3900.31
4438.27
4718.29
2656.19
3824.52
4741.49
5387.69
5730.19
3221.49
4588.23
5650.43
6411.83
6830.16
3819.78
5357.57
6539.3
7412.85
7923.04
4355.43
6000.95
7251.21
8213.24
8820.23
4675.74
6360.61
7629.47
8633.65
9300.98
4927.18
3306.61
1017.69
807.033
915.231
805.612
961.516
4546.22
4400.33
2907.1
3658.94
1851.75
2409.53
1579.62
1739.54
1487.94
4240.4
2464.27
1690.23
1515.52
1858.75
1633.41
1309
1266.14
1225.45
1089.88
1417.83
1291.43
4515.09
2826.12
3189.63
2126.99
1803.1
2439.42
1343.96
1098.62
1467.19
10118.1
10403.4
10820.7
12404.5
20837.3
7391.45
8625.49
9607.48
10971.4
12924
2694.37
3891.82
4835.06
5497.83
5846.91
2148.32
3125.79
3901.96
4443.23
4722.94
2436.11
3543.37
4420.64
5030.32
5344.26
2146.81
3127.85
3907.73
4450.43
4729.71
2554.56
3706.51
4616.91
5251.45
5580.25
10106
11409.4
12257.1
13896.5
22109.1
9997.16
11525.3
12580.6
14057.4
16544.4
6978.9
8912.84
10348.1
11690.1
12948.6
8817.78
10779.1
11937
13132.6
14168.3
4758.49
6606.88
7995.86
9002.92
9583.74
6000.81
8003.95
9464.14
10597.1
11339.7
4122.01
5836.2
7145
8065.43
8562.62
4511.41
6334.72
7711.06
8682.98
9215.56
3901.68
5558.8
6831.02
7717.77
8187.36
9381.21
10609.4
11468.3
13107.8
21202.8
6031.16
7898.1
9311.3
10588.7
11738
4372.85
6127.11
7464.79
8439.64
9005.09
3944.09
5570.72
6824.99
7735.6
8255.6
4735.45
6515.13
7873.33
8930.7
9634.48
4210.93
5879.01
7163.11
8132.68
8726.39
3422.35
4864.3
5986.88
6800.53
7257.82
3331.14
4771.11
5894.25
6690.29
7119.15
3241.25
4672.75
5790.91
6568.1
6972.74
2890.35
4182.65
5198.73
5905.6
6272.32
3720.93
5309.46
6536.96
7400.44
7863.8
3400.27
4874.05
6021.63
6829.61
7261.04
9587.91
10278.6
10858.2
12460.5
20718
6554.96
8028.98
9171.9
10489.6
12077.6
7581.44
9247.28
10365.5
11914.1
14764.4
5259.68
6978.14
8290.5
9452.64
10402
4583.14
6288.57
7597.64
8643.35
9351.97
5942.45
7745.64
9127.02
10434.4
11662.2
3516.44
5002.03
6157.23
6990.31
7454.96
2907.78
4197.59
5210.83
5920.24
6292.45
3820.55
5401.25
6624.1
7515.67
8025.98
10137.6
9537.51
8493.82
7047.22
5101.27
1992.17
18363.2
18712.1
21268.4
21924.5
18038.7
19159
20366.9
19768.4
15042.4
18431.4
15701.2
18994.8
18025.5
16268.7
25081
17684.4
17897.8
20108.9
20531.3
17106.1
18208.6
19505.3
19098.9
14992.2
22255
15568.3
22170
18208.6
19743.2
26914.4
16935.1
17024
18643.7
18829.8
16430.3
17918.6
18360.7
18435.5
17210.3
19743
17967.4
19771.9
19787.6
21728.6
24287.2
16240.7
16348.2
17343.9
17376.9
16059
17781.4
17226.4
17567.9
16176.4
17315.4
16908.9
16901.7
18151.2
19614.7
21072.2
15507.3
15647.6
16476.2
16428.1
15813.5
17692.1
16501.6
17025.3
15360.7
14356
16120.7
13812.8
16752.1
16626.2
17493.1
15196.6
15378.1
15909.1
15829.9
15477.3
17044.3
16044.3
16489.2
14704.1
12398
15278.2
12173
15638.3
14694
15902.8
21248.5
20452.3
22249.9
23346.5
19755.6
19775.7
20769.6
19874.5
18825.3
13988.7
18803.2
14077.9
16719.4
15210.4
18282.3
20102.4
19532.1
20610.8
21325.3
19125.6
19305.2
19636.9
18889.3
17529.9
13600.3
17533.1
13706.1
15399.5
13750.4
16999.6
18615.4
18285.9
18661.2
18999.6
18065.5
18257.5
18187.4
17748.9
16743.6
13442.4
16561.2
13189.4
14879.4
12639.1
16820.6
17250.4
17070.4
17205.5
17348.5
16934.6
17069.1
17056.8
16716.8
15949.2
14031.2
15859.4
13715.3
14419.6
12818.5
17326
16593.4
16479.6
16431.4
16490.9
16204.7
16332.6
16415.4
16212.1
15870.6
15270.7
15815.3
15130.2
14635.3
13440.3
18081.2
16125.2
16018.6
16001.6
16034
15788.3
16093.2
15959.4
15888.1
15863.2
16053.2
15867.7
15972.9
14812.8
14046.8
18896.5
11299.9
6411.58
18632.9
12216.3
20346.2
15027.2
31959.2
39543.6
42007.5
51322.8
27173.1
23555.9
17242.4
13674.4
8387.24
5580.32
19334.2
19822.9
16628.8
19563.6
26122.4
23374.3
30084.2
24397.4
7960.9
5756.76
4407.35
3284.66
9716.27
7935.53
5896.07
4770.14
17598.2
18317.5
18026.1
15299.6
14107
10977.4
11020
12502.4
17771.4
17669.3
37194.7
38434.2
26414.4
27185.1
14998.8
12651
16382.2
11690
7621.17
7810.71
6082.34
8383.48
3149.66
3764.37
8501.99
11479.4
5063.34
5866.03
9455.62
15638.5
6542.65
10620.2
2500.9
6329.14
2078.8
4729.65
17518.5
21619
18014.3
21490.3
21454
21694.3
21784
21374.2
15290.8
20688.7
15770.7
20459.1
17714.7
21319.8
17691.6
21257.1
21924.5
21074
21828.2
20858.8
14108
20762.4
13608.6
20829
17102.3
19939.3
21602.7
29945.8
18097.6
22924.4
21394.6
32396.3
16224.6
17598.6
21700.8
28855.3
16055.8
16490.5
21940.2
28668.4
4890.17
6373.28
12466.1
21656.1
6213.12
7023.14
16386.4
25025.2
7800.7
7865.91
20902.3
28190.9
24081.1
26010.3
20233.3
19413
27754.8
26241.2
24671
20677.6
17842.5
31566.7
23883.9
23481.7
20806
20490.5
36313.3
1906.76
2297.75
4044.41
9132.22
2781.57
3124.32
5774.54
10461.1
4181.67
3533.13
7913.55
12149.3
26111.2
26031.3
23459.8
23300.9
19937.2
18471.9
15033.5
13394.7
10484.5
14391.4
23710.3
23089.9
23792.4
23584.1
20563.3
19404
16893.5
15208.7
11211.3
14628
23482.6
26504.3
23386.8
27111.2
22792.6
23697.9
22214.6
23804.3
21237.4
21631.7
21072.9
21022.4
23189.5
27207.5
23069
27165.8
21544.8
24065.5
21351.7
23992.2
21318.7
21583.8
21304.6
21564.2
17791.6
16924.2
11441.9
12680.8
17655.9
16460.3
11255.2
12672.7
18050.7
16887.8
11698.8
12760.6
18125.5
16721.7
12066.3
12781.5
1590.73
1101.43
776.306
946.78
668.922
626.075
2239.35
1385.26
1067.28
1897.52
1552.85
1358.46
2640.43
2272.86
2311.53
3343.1
2785.73
2527.5
25207.4
23106.7
21581
23093.1
21707.4
20528.9
16512.8
15547.9
15024.6
11118.9
9825.82
9287.94
5082.57
3837.27
3289.95
22721
21372.1
20132.3
23189
21470.8
20063.4
17083.1
14950.4
13724
11085.3
9062.9
8243.21
5414.92
3827.69
3110.68
26574.5
26101.2
28869.7
25993.6
29721.8
26021.6
35788
27328.5
20472.6
21004.3
20154.3
18877.8
23139.7
21882.8
22666.6
19414.2
22445.7
22355
20740.2
22273.8
27760.5
24818.1
27326.1
27714
29615.7
30595.2
22743.6
23584
20406.8
19797.5
24820.4
25437.7
16261.5
8612.68
15138.4
9558.41
16471.8
8677.54
15063.4
9477.13
16281.2
8728.9
15049.7
9887.89
14618
10354.4
14784.5
10268.8
20963.6
18022.8
20770.3
17952.3
23103
20944.4
23258.1
20688.5
20364.8
15028.1
21324.4
14870.2
21181.2
17839.4
21424.2
17627.7
23803.6
20487.5
23794.1
20211.6
20119.3
15050.7
20038
14951.7
13346.2
8758.25
11880.5
7384.04
12473.5
7829.4
11440.9
6879.88
13650.3
9321.31
12057
7615.16
13655.3
9673.04
12019.5
7668.04
2484.72
1252.25
4435.2
2166.79
2678.03
1591.46
4752.56
2698.41
3328.93
2468.52
5297.71
3676.7
13148.5
20296.9
9443.79
9034.38
6197.44
19948.2
13961.1
8171.33
8200.86
5044.95
20659.5
16346.2
13030.4
10103.2
5992.52
627.24
470.06
1052.13
696.099
976.197
670.9
1699.74
1308.91
1779.89
1434.14
2676.82
2146.95
20385.4
19994.9
13926.6
13595.3
9085.2
9398.5
7633.92
7240.99
4271.04
3496.81
19052.1
17564.8
14885.3
13324.5
11654.2
10622.3
8828.81
8234.41
5289.92
5459.9
15178.4
12560.1
15227.1
12201.1
18099
15238.3
18001.9
14944.5
12847.4
10705.3
12492.4
10792.1
15201.9
11976
15099.5
11947.8
17902.3
15181.8
17717.1
15121.7
13061
10510.6
13035.2
10650.9
9995.45
8732.38
6336.72
6999.85
9649.58
8575.85
6026.39
6652.22
10419.5
8897.36
6501.06
7438.47
10678.4
8902.96
6773.38
7551.21
2007.46
1783.86
1483.77
9006.36
4771.98
3894.24
1963.76
1963.23
1752.66
9738.43
5662.13
4806.59
2679.71
3041.55
3134.48
10644.9
7041.36
6292.46
19177.5
18227
17476.1
13362
13198.9
13056.6
9928.42
9998.91
10079.7
8724.24
8575.16
8425.89
12001.4
8653
7857.34
16301
15319
14611.1
12398.3
11791.5
11421.2
10542
9996.12
9648.67
10396.3
9377.39
8749.28
14548.5
9750.11
8813.47
4606.8
2901.26
2174.83
2022.5
5252.14
3190.4
2309.32
2070.19
4621.18
2890.42
2177.23
2039.18
5370.75
3259.36
2352.22
2088.31
4588
2841.04
2162.49
2013.25
5473.99
3293.86
2386.5
2064.82
5924.69
3512.66
2465.32
2177.78
6113.83
3661.68
2559.18
2274.1
4911.64
3038.2
2245.55
2029.96
3838.31
2568.38
2017.86
1951.62
4226.18
2701.99
2067.47
1869.29
3474.62
2394.17
1925.83
1865.34
5367.6
3290.58
2374.54
2137.56
4052.81
2695.39
2077.65
2021.02
5622.75
3460
2463.34
2209.37
4142.01
2784.75
2124.47
2055.16
3329.06
2416.78
1946.75
1909.23
1888.63
1824.55
1665.32
1789.53
3326
2394.7
1937.99
1902.65
1991.91
1851.72
1674.62
1800.59
3398.39
2380.49
1936.26
1904.09
2325.41
1948.85
1712.19
1847.2
3313.79
2291.08
1881.12
1935.46
2605.81
2011.65
1755.29
1827.31
2983.92
2189.61
1819.05
1833.64
365.759
1335.94
1275.77
380.751
-1424.03
1055.44
1106.76
412.997
622.735
1419.88
1306.23
403.513
-1089.8
1151.67
1135.32
422.718
1102.86
1567.08
1357.97
402.738
-525.347
1310.01
1178.9
428.663
1681.49
1738.58
1424.91
439.489
58.9562
1481.96
1237.97
448.43
2043.45
1890.09
1506.56
519.46
169.059
1605.44
1292.12
465.572
2184.01
2047.97
1547.7
490.4
-262.226
1719.67
1388.82
494.963
2129.13
1977.99
1517.02
491.104
-284.419
1666.13
1340.91
477.657
2190.16
2097.47
1578.53
454.353
-348.497
1766.9
1424.18
498.7
2243.43
2151.7
1627.06
466.316
-242.079
1823.29
1466.64
512.439
1993.18
1580.96
1123.09
667.788
221.318
1969.68
1577.52
1123.78
668.582
221.596
2018.79
1593.69
1129.42
670.787
222.203
1999.92
1593.81
1132.3
672.719
222.835
2063.4
1610.98
1137.31
674.44
223.274
2034.8
1612.44
1141.94
677.407
224.244
2067.75
1634.01
1154.74
683.995
226.266
2116.91
1665.33
1173.13
693.453
229.171
2110
1631.93
1148.74
680.148
225.012
2254.33
1657.93
1156.22
682.99
225.8
2119.52
1626.54
1143.2
676.961
223.993
2250.86
1648.56
1150.09
679.763
224.791
2130.39
1650.98
1160.24
686.106
226.852
2295.36
1676.4
1166.69
688.37
227.463
2177.75
1681.32
1177.54
694.93
229.563
2345.67
1703.42
1181.67
695.998
229.817
2049.63
1588.96
1123.1
667.134
221.066
2157.31
1597.82
1123.38
666.763
220.922
2073.66
1599.02
1127.81
669.314
221.702
2176.57
1605.4
1126.97
668.438
221.413
2119.05
1614.98
1134.93
672.591
222.654
2215.54
1618.4
1133.1
671.315
222.249
2194.74
1633.47
1142.14
675.805
223.579
2262.27
1632.42
1140.13
674.654
223.211
2267.11
1643.04
1146.25
677.725
224.144
9024.36
13834.6
9556.8
14212.1
10276.4
14645.7
10803.6
14959.4
10445.7
14473.1
9796.39
11015.3
9765.77
11469.4
9876.38
10961.7
10061
11115.5
7992.33
1358.17
288.936
64.5927
11.4095
8875.2
2520.45
610.205
138.03
24.3718
8107.15
1360.52
287.609
64.0403
11.2787
8995.41
2521.26
608.003
136.849
23.953
8229.5
1360.44
284.995
63.1589
11.0975
9106.17
2522.82
604.787
135.571
23.6883
8212.18
1327.75
275.507
60.8772
10.6867
9057.44
2484.41
593.133
132.686
23.1545
7847.92
1236.85
256.022
56.726
9.97831
8634.78
2372.02
567.976
127.388
22.2592
7076.08
1159.72
247.853
55.8003
9.88887
7238.27
2084.1
512.015
116.691
20.5789
7292.32
1175.82
248.309
55.5519
9.81321
7623.69
2190.73
533.504
120.635
21.1639
7000.29
1158.55
248.801