/*--------------------------------*- C++ -*----------------------------------*\
  =========                 |
  \\      /  F ield         | OpenFOAM: The Open Source CFD Toolbox
   \\    /   O peration     | Website:  https://openfoam.org
    \\  /    A nd           | Version:  11
     \\/     M anipulation  |
\*---------------------------------------------------------------------------*/
FoamFile
{
    format      ascii;
    class       volScalarField;
    location    "2.6";
    object      gradTz;
}
// * * * * * * * * * * * * * * * * * * * * * * * * * * * * * * * * * * * * * //

dimensions      [0 -1 0 1 0 0 0];

internalField   nonuniform List<scalar> 
5712
(
7075.18
23257.7
5609.54
23854.8
4218.72
24699.9
6676.43
38158.8
8209.77
52485.8
8139.05
38179.7
7841.31
31658.1
8148.58
28268.7
4929.39
3030.65
13176.8
7793.86
4839.24
2605.13
14462.9
7176.09
5368.69
3864.01
17228.9
12054.6
4058.09
2893.57
16950.8
12251
9511.64
4017.04
8193.99
3639.1
3749.46
8844.27
33083.8
8979.84
11830.2
4019.12
42703.2
11614.6
11115.7
3866.98
23570.4
7323.22
12085.2
4225.5
20443.4
6509.15
5574.73
2763.87
8397.45
3256.09
6027.68
3263.02
8198.67
3128.12
7702.11
4379.1
7063.54
3050.57
10530.6
3770.52
3628.27
1262.27
11892.7
8196.11
7384.93
5376
13451
11054.9
7357.57
6368.86
6940.68
4645.95
9707.47
6429.46
4884.24
3578.7
2501.59
2046.36
4758.01
4111.23
2486.73
2393.98
4652.88
3025.94
2400.27
1528.29
6161.8
3337.12
4580.49
5569.73
8373.07
5950.86
6587.35
9487.34
4099.41
1933.35
2711.87
3201.58
2047.2
845.096
1175.83
1187.9
7234.21
12999.8
4927.39
14540.1
8519.59
12749.3
6078.32
15266
9730.85
11580.3
7868.89
14969.7
11816.4
14307.4
8698.69
8334.29
9166.04
14272.5
12970.8
12544.6
12763.2
18520.8
11593.1
8755.62
7454.98
8327.85
13185.7
14995.8
13332.3
17420.8
16661.6
13730.1
12676.3
17234.9
16338.5
11896.4
11552.4
16205.5
15776.1
10384.7
8098.48
9460
8157.06
10222.2
9010.76
10886.6
10335.9
14994.1
15218.5
9719.53
8342.54
9108.24
8595.36
9277.11
9659.35
10386.9
11492.2
13578.5
15509.6
7977.38
6252.44
5502.61
7037.34
10934.7
13387.6
7604.5
12073.4
4607.15
6100.67
6830.96
5612
1305.68
4680.24
693.893
1687.12
3893.03
8140.18
1450.71
2830.79
577.992
3930.57
340.458
1378.32
4499.72
4577.51
5110.87
3137.9
7098.63
5643.64
8350.28
5701.07
1007.16
2503.72
2527.5
1412.36
1422.91
1857.31
2025.84
1525.73
10557.1
6385.25
1996.19
11975
6837.87
2232.43
10120.3
6317.79
2120.14
11806.5
6850.31
2230.56
9314.82
5795.88
1897.79
11546.1
6896.78
2299.09
5221.8
2775.59
733.646
6558.69
4297.73
1495.85
7736.26
5332.45
1836.87
8888.4
5724.48
1894.87
11455.1
7102.36
2484.29
6242.69
3455.78
1078.34
6103.73
4373.69
1643.48
7170.02
5292.74
1934.49
8978.42
6282.67
2236.96
11574.8
7172.57
2534.65
295.58
1996.07
2810.43
4074.09
2133.35
2463.05
5369.88
5110.51
599.573
1040.36
640.326
1084.04
486.072
1417.37
869.158
1860.61
3215.98
1576.64
4075.15
2356.24
2180.29
3797.92
3383.8
969.074
5976.79
1489.16
-1836.99
774.659
1816.71
1374.76
1271.41
1201.66
9918.49
4661.95
2716.36
1723.79
10076.3
4852.62
3406.11
2173.22
9956.76
5231.79
4954.09
3549.71
3538.06
2591.2
1792.62
1731.2
12551.9
11179.1
5921.83
6159.39
13347.3
12543.4
6589.85
6658.74
5341.74
5515.38
10914.9
9164.1
3553.63
3719.31
2018.58
2277.43
4077.05
4055.62
2268.65
2421.2
3150.87
3393.98
1801.83
2185.16
4834.48
3483.61
4858.1
3570.5
7510.28
4614.08
7214.73
4940.88
2938.1
2522.26
3082.22
2314.82
1677.61
1597.43
1966.27
1359.57
11877.9
8554.64
6173.5
6460.64
11830.3
8725.76
6214.92
6429.97
12247.8
8990.17
6304.66
6235.18
13774.6
14677.7
12729.3
8685.84
5149.33
13913.2
13095.8
12399.3
10471.6
7099.86
13045.8
11957.1
9719.08
7661.87
5018.19
7524.24
6889.23
7184.88
8427.59
7684.25
6709.11
7223.03
8281.65
7892.33
6545.72
7242.83
8106.22
10507.7
7404.81
10003.1
7011.79
8081.11
6629.6
7771.61
6804.81
6690.64
7982.31
8720.21
7566.04
7869.17
6922.28
6893.9
6344.86
6298.77
6396.08
5303.8
7608.19
7032.62
4770.08
4677.93
2783.24
9032.14
6962.62
6294.11
5041.79
3912.99
2383.19
5681.35
4263.37
4743.03
2242.66
1751.72
1010.88
4955.89
3574.26
1747.02
1444.79
4172.31
1894.74
1654.08
881.062
3389.48
3211.18
3126.8
4670.82
4723.16
4593.61
4010.34
6021.26
3379.06
2269.1
2231.25
3139.28
1050.18
528.217
288.336
624.674
4819.38
2006.98
590.041
5636.42
1448.52
384.027
4833.25
2151.55
658.843
5598.23
1499.93
416.613
4434.55
2094.77
539.531
5458.88
1515.41
353.282
4535.18
2260.8
483.876
4256.63
2032.2
466.565
4341.66
2072.51
555.429
4464.09
2086.91
434.892
5406.05
1476.44
219.177
5800.41
2879.33
749.907
5399.59
2673.07
722.326
5077
2504.08
725.146
4991.34
2118.36
514.318
5840.52
1368.61
331.561
1854.33
671.742
130.586
-220.543
770.404
295.352
79.5337
-44.9084
1967.51
738.467
188.624
-136.965
978.338
411.847
196.626
92.0128
2118.7
824.611
286.79
-9.74564
1680.05
797.744
321.225
77.9193
1283.67
740.891
286.286
1.13587
1216.32
817.208
496.302
304.585
1763.24
793.189
252.052
-188.024
1519.23
672.973
298.752
-193.348
2086.4
816.133
262.677
-142.709
1895.2
744.141
296.252
-320.975
1418.82
743.779
309.549
-56.0072
1170.16
599.395
326.613
5.71562
1055.41
662.352
406.403
257.256
810.108
511.542
349.962
212.474
2375.43
811.092
125.606
-437.117
2375.83
750.092
174.72
-600.17
2374.6
824.27
148.796
-415.257
2302.56
730.516
183.867
-581.069
2332.03
829.596
228.757
-297.321
2148.71
692.596
229.481
-476.848
2044.21
768.36
320.272
-44.7549
2356.56
777.27
327.545
-558.212
1836.68
690.47
324.187
-131.39
1901.74
530.873
158.374
-409.061
761.579
193.353
44.6842
-86.1652
1958.62
566.536
179.319
-389.423
791.156
208.966
58.0159
-70.7782
1985.26
606.755
225.115
-341.796
801.378
226.654
76.0965
-51.5092
1787.47
573.185
260.554
-270.02
775.326
234.286
104.753
-17.3643
1634.64
571.589
288.637
-157.294
690.292
247.3
144.186
29.7198
1146.21
466.797
231.654
-44.207
648.947
326.324
203.512
110.753
1322.51
471.262
228.098
-111.657
653.733
281.899
173.954
70.5608
924.941
455.035
259.334
44.6871
585.158
346.725
227.713
149.96
655.373
416.454
291.611
186.343
491.78
348.376
251.668
194.598
-19.4949
9.14955
9.35695
6.73356
5.25198
-2.78551
6.10136
5.27251
3.72318
2.90515
11.1061
25.7335
19.0065
12.8867
9.89989
30.3873
24.9717
16.4302
10.8439
8.2735
44.9489
46.0294
31.2695
20.8969
16.0162
124.433
84.6053
53.2767
34.8545
26.5328
150.226
100.125
62.9608
41.2681
31.5009
218.068
132.735
81.1471
52.735
40.1982
79.7512
67.3698
44.2176
29.281
22.3074
84.9022
63.4625
40.7585
26.9263
20.5228
54.7304
53.8658
36.0322
24.0724
18.4262
99.5513
65.5511
40.7485
26.7428
20.3263
104.034
80.5732
52.2452
34.5328
26.374
113.578
76.0147
47.7946
31.3911
23.934
173.414
106.962
65.5371
42.6167
32.4689
144.839
88.2996
54.0153
35.1181
26.7115
-36.3089
4.82963
6.95393
5.17245
4.06606
-19.874
1.56196
2.7304
2.07128
1.64983
-16.2524
15.2259
12.923
8.97674
6.96641
-12.7105
5.24673
4.81202
3.37755
2.64905
9.02487
27.3007
19.7005
13.3457
10.332
14.2591
17.4731
11.5477
7.5832
5.84865
64.9747
52.9811
34.1728
22.7063
17.4699
43.1644
33.4232
21.0999
13.9151
10.7109
119.636
69.3589
41.826
27.1763
20.6623
1543.85
3533.18
1549.5
3491.22
1681.6
3456.5
2005.86
3597.65
2101.3
3722.11
832.769
1313.53
1380.58
2224.42
436.624
636.498
151.214
208.375
8090.92
1928.87
441.121
98.3021
24.3563
2200.94
591.944
157.219
35.6791
7.73188
8013.41
1894.45
432.757
95.6157
23.8632
2238.98
660.145
162.445
37.6938
9.33825
7683.76
1803.21
410.239
90.5013
22.6085
2173.2
638.723
156.775
36.1984
9
7077.22
1645.48
373.088
82.2116
20.5386
2115.32
608.803
147.479
33.7473
8.34416
5965.68
1379.46
312.847
69.0142
17.2596
2006.2
561.647
134.535
30.5862
7.5384
2854.83
690.171
159.147
35.3497
8.85069
979.804
278.698
66.1905
14.7796
3.6323
4233.07
1008.97
230.896
51.0451
12.7628
1442.38
405.012
97.0495
22.0488
5.4701
1680.61
409.593
94.8794
21.1747
5.31067
546.711
161.878
38.1798
8.51668
2.11224
580.224
140.541
32.6181
7.30152
1.8315
218.201
58.2941
12.6506
3.57028
0.681545
150.347
514.172
4489.31
-814.118
742.708
795.969
2320.86
2970.6
1865.08
3502.87
2934.42
4527.78
3533.05
4385.63
1837.31
2475.93
1964.39
2329.83
1022.09
1062.7
2291.22
1683.55
509.534
-466.607
-765.132
-918.381
-281.556
12797.9
3037.95
4181.23
2690.55
-181.763
-50.2041
2945.59
-1421.92
-797.922
-1093.13
-559.734
7028.64
3698.46
1259.11
1044.52
3651.35
2013.9
641.948
1382.71
-1496.22
-868.973
697.338
551.861
8642.48
4296.14
5293.91
2843.85
4081.84
4425.45
1536.73
-899.054
921.065
1633.39
1351.12
1178.75
1078.46
845.499
1338.51
1084.4
855.614
609.281
265.236
449.008
375.212
287.339
184.482
64.6419
-416.655
-347.548
-259.257
-159.251
-53.6209
-683.766
-571.181
-427.052
-262.933
-88.62
-821.907
-687.86
-515.359
-317.89
-107.259
-244.986
-195.973
-137.696
-79.0055
-25.2035
9346.77
8199.24
7105.04
6637.41
6285.19
2739.62
2446.74
2320.23
1966.7
1053.91
3213.78
2582.71
2203.56
1753.56
931.09
2086.48
1706.44
1506.69
1179.09
500.372
-19.208
30.6952
147.238
163.711
82.5282
50.4599
136.176
182.073
163.438
70.3693
2513.12
2116.28
1684.14
1185.99
492.242
-865.644
-424.98
-168.802
-31.6589
6.30991
-636.052
-453.673
-275.547
-132.12
-34.5285
-773.922
-483.012
-251.668
-100.196
-21.4095
-506.549
-420.893
-307.539
-183.093
-59.616
5250.03
4802.97
4208.83
3956.81
3772.53
2854.88
2268.16
1903.2
1465.87
726.614
1173.11
1070.3
916.853
664.718
265.192
924.796
797.587
647.663
448.976
172.195
3053.02
2473.77
1897.39
1271.61
493.991
1790.46
1527.47
1208.35
807.906
294.397
561.679
473.55
372.426
248.895
91.5276
1223.03
1027.73
792.108
512.182
181.025
-1298.57
-1048.6
-757.911
-453.811
-150.225
-764.421
-623.717
-452.137
-269.361
-88.5064
627.911
546.667
444.056
304.586
113.667
499.488
437.283
356.498
244.119
90.2018
5609.53
4131.85
3603.62
3376.35
3018.64
3291.64
2573.97
2005.41
1445.68
659.275
3913.95
3230.04
2640.13
2079.59
1029.45
2279.48
1868.62
1466.83
1039.51
458.117
3484.14
2861.59
2198
1452.83
541.201
3359.82
2497.67
2046.29
1555.48
667.642
1346.5
1124.39
866.361
563.704
201.358
-797.843
-658.702
-484.329
-292.698
-97.2124
816.726
703.624
569.833
392.592
147.591
-27010
-44284.1
-22388.2
-35853.5
-24029.6
-50437.8
-28767.1
-64037.6
-17095.9
-11678.2
-19263.3
-11975.9
-15786.8
-10134
-19570.6
-10275.8
-22306.3
-16775.9
-32529.6
-23399.4
-19156.2
-15238.5
-27197.2
-20403.9
-15371.5
-15684.3
-12610.8
-12101.5
-14824.4
-13985.5
-37623.2
-10376.7
-14297.1
-5330.18
-46058.1
-12757.5
-12786.2
-4737.08
-27954.2
-8803.65
-14637.9
-5600.98
-24831.4
-7723.4
-11487.1
-4616.63
-14657.9
-5306.96
-10898.6
-4787.39
-12743.6
-4607.77
-11301.9
-5473.9
-10180.6
-4035.75
-13073.8
-4611.42
-4589.02
-1610.04
-9762.41
-6462.42
-8426.6
-5122.6
-8632.29
-6932.15
-7404.16
-5276.36
-8559.76
-4851.71
-10012.6
-6216.48
-5771.15
-3433.82
-3105.82
-1902.51
-4980.88
-3430.06
-2583.17
-1834.79
-5861.15
-3174.56
-3241.25
-1620.16
-7537.57
-3822.96
-4857.95
-5664.67
-9556.04
-6414.63
-6833.41
-9553.77
-5115.59
-2292.21
-2910.1
-3274.63
-2767.82
-1113.37
-1316.55
-1244.43
-11267.1
-13684.9
-6342.45
-15464.5
-11716.7
-13061.3
-7284
-15815.1
-11846.7
-11902.7
-8682.5
-15058.4
-8124.74
-6568.94
-8871.9
-9828.19
-9799.5
-9008.77
-10369.7
-11997.3
-12870.8
-18273.3
-6174.13
-6340.07
-6883.74
-8327.46
-13042.2
-12980.6
-9051.71
-16458.4
-12651.8
-12033.9
-8911.69
-16216.4
-12599.8
-10655.8
-8322.67
-15135.8
-12471.3
-7397.77
-5892.86
-7587.73
-6055.28
-8451.72
-6808.69
-9207.56
-7786.88
-13796.9
-12536
-6955.26
-5989.69
-6944.23
-5983.36
-7608.76
-7059.51
-9127.85
-9001.12
-12754.9
-13083
-6362.98
-5081.12
-4683.16
-6166.21
-8011.92
-11127.9
-6059.38
-10275.8
-4280.05
-5677.42
-6113.57
-4998.74
-793.943
-4061.86
-227.697
-1195.78
-2903.14
-7066.61
-631.581
-1966.16
-375.434
-3621.08
-131.223
-1120.86
-4396.25
-4386.01
-5063.03
-3037.28
-6807
-5287.57
-8191.94
-5375.37
-948.668
-2368.6
-2489.24
-1345.04
-1348.61
-1735.99
-1979.54
-1457.01
-5487.71
-1887.85
-7420.47
-2532.86
-5610.02
-1969.7
-7596.49
-2728.39
-5565.68
-1939.4
-8049.31
-3108.55
-3459.34
-966.523
-4284.27
-1648.84
-4814.54
-1872.89
-5778.83
-2192.34
-8494.64
-3388.89
-4416.86
-1331.53
-3908.61
-1950.34
-4697.49
-2256.58
-6348.04
-2790.23
-8794.17
-3328.51
-5985.03
-5624.8
-4469.66
-4414.84
-9998.85
-7652.84
-8097.52
-6721.62
-4093.68
-3600.93
-1668.23
-1216.22
-3852.61
-3768.26
-1527.43
-1609.83
-2869.25
-4556.26
-3437.88
-4923.44
-3741.87
-2403.51
-3105.23
-441.157
-6582.03
-1687.3
2606.83
495.228
-863.97
-220.022
295.016
744.038
-2498.19
-1818.15
-923.276
-572.877
-2642.93
-1923.94
-1361.34
-652.651
-2942.12
-2302.28
-1785.09
-886.688
-1114.16
-41.0573
709.609
1136.24
-5002.86
-5404.77
-3837.72
-3615.85
-6693.94
-6721.98
-5538.96
-4663.88
-2536.07
-2869.21
-3839.28
-4445.13
-2297.91
-2009.64
-938.547
-869.129
-3539.21
-2783.11
-1774.67
-1395.17
-1291.56
-1475.53
-188.66
-548.509
-1711.74
-1262.9
-2504.12
-1889.28
-2722.43
-2309.93
-3885.13
-3104.75
-595.085
-375.19
-1206.62
-743.808
421.266
549.158
-289.272
159.215
-3682.03
-4690.99
-3209.82
-4815.58
-3637.42
-4664.19
-3285.29
-4807.85
-3813.8
-4297.12
-3463.34
-4566.25
-2794.02
-4623.35
-2440.45
-2218.54
-2504.42
-6974.65
-4989.1
-4674.75
-4963.23
-5272.64
-5590.17
-4743.01
-4085.16
-3894.8
-3189.15
-5628.29
-5702.69
-7488.19
-11576.4
-5311.54
-5118.31
-7182.5
-11026.1
-4851.74
-4682.29
-6627.04
-10153.6
-6825.37
-5246.94
-6212.97
-4742.1
-5511.1
-4413.43
-5736.84
-5324.32
-6130.8
-9390.79
-5532.77
-5231.55
-4746.07
-4784.63
-4348.37
-4627.8
-4588.64
-5513.18
-4357.3
-8274.5
-3884.23
-2784.25
-2649.06
-956.909
-5528.04
-4856.75
-4279.69
-3145.1
-2088.54
-775.951
-3216.09
-2603.68
-3192.69
-965.795
-428.912
127.077
-3561.11
-2323.11
-615.833
-350.105
-2659.22
-731.515
-280.091
185.417
-1974.89
-2096.66
-2223.23
-4199.12
-3073.66
-3533.93
-3188.21
-5866.61
-2060.67
-1354.34
-1209.35
-2540.45
242.162
382.349
803.883
97.2878
-4088.49
-1189.47
-7795.44
-799.807
-3813.81
-1277.92
-7574.35
-829.347
-2908.14
-770.509
-6888.39
-657.54
-2881.82
-639.57
-2688.68
-621.339
-2971.27
-904.046
-3173.9
-595.731
-6481.12
-840.339
-4033.74
-782.218
-3767.39
-604.715
-3891.35
-769.636
-4394.86
-659.976
-6804.96
-823.335
-798.863
-159.084
190.235
468.196
-267.621
-38.6196
74.7163
148.425
-786.426
-122.199
209.189
441.873
-180.38
39.5822
81.2541
90.8216
-803.86
-79.2113
212.721
392.368
-2.74421
260.57
405.979
451.453
576.38
507.839
580.232
609.066
1047.01
755.501
588.46
437.65
-346.63
136.964
417.814
704.657
-284.433
191.526
335.696
708.306
-869.516
-63.0925
276.419
586.73
-668.344
69.3455
302.506
867.544
142.571
334.54
447.513
599.866
62.8028
297.405
338.474
512.054
610.456
517.279
438.057
352.455
427.429
405.197
339.721
324.468
-1275.04
-277.542
226.176
762.438
-1596.97
-331.393
92.5501
953.538
-1222.9
-238.763
245.709
776.652
-1535.3
-305.686
94.1057
942.844
-1137.02
-179.853
201.854
673.962
-1392.93
-256.824
61.9218
858.409
-756.41
-29.3099
187.071
491.22
-1441.59
-216.537
67.9855
1067.23
-706.031
30.127
214.259
674.089
-1490.34
-255.131
19.9409
672.654
-650.103
-97.7654
29.0153
171.162
-1391.99
-217.838
39.4912
675.2
-618.593
-85.4733
32.9658
168.979
-1192.79
-145.245
49.48
655.991
-526.6
-55.0301
47.2551
176.483
-978.029
-85.0337
34.2118
588.843
-430.935
-24.0346
48.6834
169.629
-714.931
12.6011
84.2517
505.115
-222.891
46.7198
65.5527
165.664
-317.728
144.892
235.95
468.558
104.547
219.528
198.378
233.055
-587.678
41.8343
153.159
481.897
-21.9386
140.839
131.377
199.634
8.75228
254.82
283.991
423.423
230.261
281.37
244.814
246.575
332.295
346.084
291.215
304.553
356.451
325.252
256.842
226.606
105.432
30.8301
12.8407
7.26389
5.33728
44.6844
14.7718
6.56192
3.78083
2.77921
123.593
44.9412
22.0558
13.36
10.026
71.3537
32.5613
17.7592
11.1452
8.44644
152.287
62.9878
33.2583
20.5804
15.5213
180.885
94.4834
54.5406
34.7653
26.4648
200.594
109.08
63.6686
40.6228
30.8607
224.549
133.899
80.9039
52.2502
39.7944
182.023
83.1043
45.9787
28.9123
21.9895
154.484
73.3729
41.1749
25.9322
19.7222
164.328
68.2974
36.635
22.7159
17.1692
136.014
68.3836
39.3694
24.9175
18.9915
195.711
95.4006
53.845
34.0214
25.8358
158.191
82.9549
48.0247
30.5528
23.2738
187.009
108.884
65.4187
42.1796
32.1126
155.772
90.023
53.9256
34.7231
26.4464
114.336
27.2848
10.3357
5.65044
4.10776
53.0393
10.9755
3.91366
2.07601
1.48046
123.417
35.509
15.8315
9.29041
6.88046
56.3409
13.974
5.94012
3.43485
2.51141
127.507
43.0449
21.2864
12.8966
9.60029
63.9305
23.4919
12.4838
7.83078
5.86285
142.138
60.4017
33.07
20.5521
15.4276
84.3387
36.2788
20.2612
12.6932
9.52223
120.46
67.4271
40.0222
25.5936
19.4913
-1749.92
-3291.08
-1793.67
-3292.42
-1943.34
-3309.46
-2125.28
-3389.87
-2051.8
-3402.56
-800.201
-1253.67
-1335.61
-2088.79
-398.085
-591.866
-106.849
-164.716
-8383.53
-1981.03
-450.217
-99.8409
-24.6313
-2254.56
-607.132
-160.697
-36.2987
-7.82641
-8241.26
-1935.32
-440.004
-96.8485
-24.0872
-2298.41
-677.356
-165.908
-38.3216
-9.45409
-7798.17
-1825.24
-414.397
-91.2396
-22.745
-2224.13
-652.502
-159.522
-36.6956
-9.09256
-7082.13
-1649.11
-374.143
-82.4335
-20.5803
-2136.85
-615.967
-149.034
-34.0406
-8.40016
-5916.37
-1372.77
-311.938
-68.8783
-17.2313
-1991.47
-561.799
-134.862
-30.6702
-7.5562
-2831.56
-684.868
-158.044
-35.1308
-8.80158
-959.629
-274.571
-65.4302
-14.6413
-3.6037
-4193.54
-1001.3
-229.491
-50.7889
-12.7084
-1417.44
-401.576
-96.5832
-21.9797
-5.4576
-1666.64
-406.301
-94.1459
-21.0209
-5.27455
-529.903
-157.823
-37.3132
-8.34279
-2.07307
-570.179
-138.236
-32.0907
-7.18668
-1.80366
-202.401
-54.3555
-11.7509
-3.37894
-0.636956
203.055
-1027.9
-5287.18
894.444
-6331.76
-2777.38
-6127.2
-2809.46
-11132.8
-5930.24
-12485.1
-6613.68
-134.356
-533.667
-838.226
-987.825
-887.387
-363.168
-220.295
-827.419
-1256.12
-1387.08
-1118.4
-383.297
-114.15
-122.355
-428.096
-431.231
-612.464
-605.743
-590.678
-558.535
-528.584
-504.691
-413.672
-368.923
846.316
2197.2
3560.6
2523.78
2321.96
1119.56
800.861
2299.3
3717.66
4303.99
3590.79
1637.32
-121.16
-102.417
-77.6075
-48.3599
-16.4205
-481.946
-408.136
-309.871
-193.401
-65.7273
-756.944
-640.971
-486.625
-303.718
-103.221
-891.755
-754.85
-572.875
-357.45
-121.465
-800.93
-677.727
-514.062
-320.561
-108.885
-329.463
-279.817
-212.309
-132.002
-44.6835
-198.553
-167.737
-127.037
-79.1339
-26.8659
-746.812
-632.036
-479.596
-299.224
-101.675
-1133.46
-959.013
-727.589
-453.931
-154.25
-1250.81
-1057.59
-801.954
-500.191
-169.959
-1007.76
-851.417
-645.212
-402.299
-136.687
-346.399
-293.348
-222.465
-138.579
-47.0216
-103.009
-87.1492
-66.0957
-41.2137
-13.9983
-110.48
-93.5371
-70.9927
-44.2936
-15.0496
-386.739
-327.646
-248.859
-155.364
-52.8058
-389.633
-330.153
-250.804
-156.598
-53.2293
-553.252
-468.671
-355.939
-222.199
-75.5198
-547.149
-463.462
-351.953
-219.699
-74.6686
-533.539
-451.917
-343.141
-214.155
-72.7717
-504.247
-426.857
-323.947
-202.111
-68.6708
-477.3
-404.005
-306.414
-190.985
-64.8387
-455.059
-384.602
-291.376
-181.526
-61.6245
-373.684
-315.998
-238.948
-148.297
-50.1721
-332.299
-280.336
-211.816
-131.58
-44.5788
752.733
629.535
475.828
298.288
102.133
1946.23
1623.37
1226.97
771.498
265.509
3118.69
2585.75
1958.78
1245.76
436.633
2195.71
1816.74
1380.61
883.002
310.784
2051.94
1702.73
1287.66
808.578
262.898
1020.14
864.192
662.486
416.813
132.099
713.188
596.633
450.339
281.546
96.1534
2042.7
1706.24
1287.93
806.629
276.229
3283.28
2732.09
2062.72
1297.71
447.396
3776.6
3130.21
2364.5
1494.92
519.175
3150.69
2611.6
1974.78
1249.89
432.471
1452.06
1216.12
927.438
589.634
203.697
296.124
692.951
992.241
1133.85
1021.9
500.317
444.294
1044.63
1456.94
1557.42
1244.45
466.65
241.775
230.144
550.949
535.302
724.236
699.782
683.344
630.639
611.204
517.996
551.572
412.791
-689.756
-1959.29
-3148.39
-1971.47
-1645.66
-378.693
-731.509
-2186.64
-3468.35
-3855.78
-2946.44
-869.54
267.891
227.357
173.009
108.179
36.8012
626.531
531.339
404.021
252.476
85.8647
896.895
760.397
578.029
361.142
122.808
1024.71
868.589
660.153
412.399
140.23
923.82
783.279
595.397
371.942
126.465
455.037
387.953
295.849
184.88
62.7954
401.843
340.947
259.386
162.166
55.1644
944.107
800.296
608.293
380.036
129.234
1316.12
1115.08
847.19
529.151
179.923
1406.09
1190.63
904.206
564.655
191.991
1123
950.484
721.627
450.616
153.228
422.668
358.976
273.128
170.63
57.9973
218.74
185.654
141.28
88.3394
30.0516
208.21
176.706
134.46
84.0691
28.5975
498.215
422.601
321.391
200.859
68.3104
484.072
410.603
312.263
195.151
66.3688
654.79
555.289
422.209
263.821
89.7143
632.629
536.435
407.828
254.814
86.6487
617.889
524.051
398.473
248.981
84.6626
569.984
483.183
367.243
229.407
77.9997
553.001
469.262
356.887
222.965
75.7981
468.08
396.682
301.388
188.203
63.9748
500.287
425.393
323.765
202.143
68.6461
373.303
316.518
240.457
150.056
50.9728
-609.646
-506.56
-381.06
-238.473
-81.6966
-1729.17
-1437.21
-1083.9
-681.506
-234.87
-2739.68
-2257.51
-1704.16
-1084.61
-381.728
-1672.94
-1349.94
-1006.61
-638.606
-224.949
-1405.18
-1121.14
-817.42
-496.976
-150.937
-309.771
-223.443
-142.548
-70.9262
-7.83297
-650.165
-542.871
-409.235
-255.774
-87.3797
-1940.75
-1619.68
-1222.12
-765.609
-262.332
-3055.34
-2536.1
-1911.68
-1202.45
-414.902
-3361.74
-2768.37
-2081.25
-1313.61
-456.602
-2549
-2082.02
-1556.05
-978.954
-337.993
-732.343
-579.941
-422.09
-261.2
-88.8346
-1394.12
-880.288
-207.334
723.381
1025.79
1305.02
625.663
-10666
-1621.51
-3063.92
-1469.85
294.101
-3942.54
882.956
2518.95
1211.07
-5773.22
-2602.91
-387.382
-499.95
-3304.8
-1209.97
-211.277
-978.081
2213.8
1408.9
-471.324
-115.119
-7611.92
-3533.65
-4169.41
-2003.27
-3474.3
-3228.65
-1023.29
1431.64
-323.26
-669.567
-444.035
-397.767
-518.949
-615.254
-539.255
-343.784
-237.388
-183.89
-104.656
-170.468
-133.455
-99.1936
-64.8107
-23.585
654.388
554.995
421.659
263.135
89.4102
925.373
782.28
592.539
368.918
125.162
1177.34
995.52
754.423
469.998
159.527
567.325
480.778
363.177
224.39
75.4865
-7674.34
-6911.12
-6291.26
-6458.92
-6843.35
-1036.24
-707.217
-862.461
-1033.43
-744.446
-2146.36
-1587.59
-1400.81
-1255.53
-791.294
-940.199
-622.811
-587.649
-541.293
-248.013
270.238
219.605
144.518
66.4602
12.1482
-3292.21
-2704.51
-2093.1
-1435.36
-583.152
798.814
668.478
493.034
294.472
94.8087
2192.83
1794.3
1329.12
820.324
278.242
1087.72
912.658
684.8
422.199
141.845
-4044.08
-3789.68
-3474.3
-3607.02
-3876.43
-1779.18
-1275.51
-1102.05
-957.241
-567.366
-298.214
-252.849
-243.693
-222.126
-112.653
-400.425
-322.804
-265.55
-201.402
-87.3389
-2757.82
-2236.46
-1728.98
-1177.86
-468.758
-1017.14
-828.078
-645.217
-441.276
-166.963
-158.092
-116.755
-90.0353
-67.1329
-28.8792
-844.975
-695.057
-530.387
-344.792
-123.595
1977.8
1655
1242.94
769.503
260.111
1269.96
1070.44
806.203
498.095
167.75
-393.52
-320.398
-252.72
-176.336
-68.8239
-82.0174
-61.2989
-54.4649
-47.8483
-22.2722
-4636.65
-3250.73
-2894.56
-2940.13
-2941.78
-2562.61
-1914.46
-1470.52
-1092.94
-535.071
-2772.17
-2192.15
-1786.41
-1517.82
-813.257
-1475.52
-1140.97
-878.659
-654.74
-326.062
-2916.24
-2360.62
-1804.15
-1202.3
-456.28
-2224.51
-1456.53
-1215.11
-1027.48
-491.09
-869.614
-707.108
-539.656
-355.532
-130.126
1292.39
1091.7
824.468
510.87
172.481
-246.191
-190.8
-158.882
-126.278
-55.6444
0.557761
44.213
105.025
140.185
107.411
3.01964
-19076.4
-16836.3
-16090.1
-18337.6
-13974.7
-11059.5
-12621.3
-9583.65
-16489.7
-14421.7
-15191.2
-14260.2
-13326.8
-11344.8
-13996.6
-15680.7
-14011.1
-12918.4
-14570.9
-11773.9
-9972.86
-10558.6
-8471.99
-14771.5
-13089.4
-13606.2
-12365.4
-11777.6
-11008.3
-11333.3
-12297.7
-11267.6
-10225
-11186.7
-9775.61
-8391.32
-8822.64
-7587.21
-12350.5
-11177.1
-11494.8
-10446.8
-9995.06
-9248.11
-9479.76
-8573.2
-8064.3
-7217.92
-7653.26
-7233.99
-6486.59
-6559.57
-6013.04
-8871.75
-8944.81
-8369.2
-8421.65
-7458.45
-6738.71
-7469.41
-5476.94
-5233.95
-4649.36
-4850.78
-4844.05
-4385.62
-4334.24
-4011.04
-5869.7
-5852.49
-5608.22
-5467.01
-5102.77
-4608.56
-4972.62
-1970.8
-1900.47
-1683.28
-1742.87
-1789.8
-1673.99
-1589.61
-1483.95
-2228.63
-2217.33
-2083.47
-1978.41
-1918.39
-1760.92
-1879.99
-7337.81
-7242.45
-10881.5
-11724.7
-6925.78
-6162.54
-9557.08
-7782.39
-5845.02
-4468.36
-5805.95
-4425.89
-5845.46
-5582.18
-4486.38
-7330.29
-6964.44
-9687.28
-10561.5
-6477.85
-5879.7
-8434.17
-7282.07
-5849.53
-4013.65
-5749.98
-4217.52
-5270.21
-5061.94
-4572.45
-6725.72
-6422.36
-8227.71
-8817.45
-6049.55
-5645.83
-7374.03
-6544.8
-4903.14
-4425.21
-4891.31
-4636.07
-4586.41
-4577.98
-4769.34
-5474.44
-5281.71
-6186.35
-6491.72
-5026.97
-4715.28
-5738.24
-5252
-4764.02
-4053.84
-4685.75
-4292.66
-4396.52
-4348.65
-4335.05
-3806.6
-3694.56
-4103.65
-4256.14
-3439.29
-3192.3
-3872.96
-3565.12
-3382.39
-3154.65
-3304.62
-3289.5
-3098.31
-3028.6
-3106.53
-1422.77
-1382.01
-1502.63
-1551.17
-1280.03
-1178.55
-1426.19
-1316
-1111.8
-1162.03
-1186.11
-1252.32
-1151.88
-1113.05
-1137.82
7043.07
22776.9
5578.57
23852.7
4202.68
24701.7
6672.29
38166.9
8204.94
52497.3
8122.83
38176.3
7807.86
31641
8125.44
27654.9
4922.34
3028.99
13177.5
7793.98
4837.75
2604.95
14466.1
7177.24
5335.08
3837.94
16883.3
11828.3
4037.8
2885.11
16964.8
12268
9517.54
4010.49
8194.42
3636.79
3744.8
8851.83
33092.7
8981.09
11832.2
4019.17
42713.3
11616.8
11117.9
3867.65
23582.6
7325.45
12088.7
4226.05
20459.4
6512.04
5519.79
2737.1
8248.85
3200.38
6028.36
3263.5
8212.5
3133.34
7701.18
4379.25
7068.01
3052.71
10539.3
3773.8
3630.36
1263.08
11891.6
8195.42
7384.76
5375.8
13449.4
11053.7
7357.71
6368.7
6940.8
4645.91
9706.73
6429.17
4884.61
3578.71
2501.25
2046.18
4758.65
4111.36
2486.79
2393.98
4653.65
3026.01
2400.05
1528.1
6162.6
3337.64
4580.65
5570.01
8372.93
5951.14
6587.42
9487.72
4100.71
1933.9
2712.04
3201.77
2047.33
845.191
1175.73
1187.91
7189.98
12994.2
4896.32
14530.6
8521.47
12745.1
6081.37
15263
9730.99
11579.3
7869.61
14969
11815.4
14305.3
8698.25
8334.69
9166.75
14270.6
12969.7
12543.7
12762.8
18520.8
11591.5
8754.74
7454.57
8327.85
13186.1
15017.7
13368.8
17425.5
16643.3
13723.2
12671.1
17227.1
16333.5
11893.8
11549
16204.1
15774.2
10383.4
8097.47
9458.95
8156.02
10221.1
9009.44
10885.1
10334.1
14993.4
15217.5
9718.42
8341.54
9107.43
8594.38
9276.43
9658.38
10386.3
11491.3
13578.6
15509.1
7976.9
6252.19
5502.41
7037.3
10933.8
13386.9
7604.1
12073
4607.1
6100.76
6830.72
5611.9
1305.55
4680.23
693.81
1687.08
3892.91
8140.01
1450.71
2830.76
577.9
3930.62
340.35
1378.29
4499.81
4577.62
5111.08
3137.98
7098.63
5643.66
8350.52
5701.13
1007.15
2503.78
2527.59
1412.39
1422.9
1857.33
2025.88
1525.75
10583.1
6398.32
2004.01
11980.9
6846.82
2235.5
10116.8
6316.7
2120.02
11803.4
6848.66
2230.33
9312.36
5794.64
1897.48
11544.3
6895.49
2298.73
5221.04
2775.09
733.479
6557.77
4297.09
1495.64
7735.01
5331.61
1836.59
8886.73
5723.44
1894.55
11453.9
7101.37
2483.95
6241.89
3455.25
1078.15
6102.81
4372.99
1643.21
7168.99
5291.93
1934.18
8977.37
6281.79
2236.62
11573.9
7171.7
2534.29
300.936
1998.14
2824.56
4078.5
2135.71
2464.13
5377.76
5113.06
582.767
1027.68
621.247
1067.03
490.362
1417.03
873.533
1859.83
3228.03
1581.84
4079.74
2357.54
2184
3805.81
3388.46
972.948
5979.6
1491.16
-1825.15
782.93
1822.38
1379.89
1281.02
1209.34
9930.38
4657.7
2705.16
1715.57
10067.6
4852.57
3404.05
2173.12
9951.93
5230.87
4955.51
3549.41
3542.05
2591.74
1797.51
1732.99
12548.3
11177.1
5922.81
6159.48
13344.8
12541.7
6590.41
6658.75
5342.79
5515.4
10911.3
9162.4
3555.79
3719.91
2020.33
2278.03
4078.36
4056.01
2269.5
2421.51
3153.31
3394.57
1804.11
2185.85
4834.91
3483.65
4858.02
3570.43
7507.96
4613.42
7213.52
4940.32
2939.89
2522.84
3082.67
2315.08
1679.73
1598.46
1966.91
1360.03
11907.6
8560.28
6175.48
6461.24
11822.2
8725.11
6213.68
6429.9
12240.2
8986.78
6302.99
6234
13769.8
14674.1
12724.3
8682.37
5148.3
13910.4
13092
12395
10468.1
7098.48
13043.4
11954.4
9716.67
7660.11
5017.46
7524.3
6894.06
7180.79
8421.49
7682.16
6708.76
7220.53
8280.57
7890.16
6544.21
7241.99
8105.58
10505.8
7403.65
10000.7
7010.38
8078.72
6628.12
7769.49
6803.36
6689.6
7981.4
8718.67
7564.84
7867.26
6920.9
6892.06
6343.51
6297.31
6394.91
5303
7607.28
7031.05
4769.1
4677.43
2782.79
9030.74
6961.69
6293.62
5041.32
3912.57
2382.82
5680.03
4262.5
4743.02
2242.53
1751.98
1010.99
4955.84
3574.11
1747.16
1444.84
4172.3
1894.66
1654.39
881.195
3389.17
3210.81
3126.59
4670.43
4722.23
4592.88
4009.85
6020.62
3379.07
2268.99
2231.29
3139.14
1050.49
528.36
288.628
624.795
4825.02
2012.44
592.735
5642.38
1457.3
386.248
4831.8
2151.71
658.86
5595.89
1498.37
416.65
4433.49
2094.42
539.507
5458.07
1514.77
353.147
4534.43
2260.36
483.736
4255.81
2031.77
466.435
4340.78
2072.09
555.311
4463.15
2086.47
434.761
5405.36
1476.08
219.064
5799.58
2878.85
749.741
5398.69
2672.61
722.174
5076.11
2503.63
725.006
4990.53
2117.95
514.183
5839.86
1368.38
331.491
1846.97
667.483
128.009
-221.527
762.804
291.468
77.6681
-45.7088
1967.84
738.547
188.589
-137.169
978.482
411.893
196.559
91.8635
2118.63
824.59
286.755
-9.86684
1679.94
797.728
321.209
77.8185
1283.77
740.957
286.342
1.14353
1216.92
817.48
496.444
304.643
1763.27
793.227
252.081
-188.035
1519.28
673.026
298.793
-193.307
2086.25
816.106
262.677
-142.747
1895.09
744.13
296.263
-320.952
1419.04
743.902
309.626
-55.9717
1170.33
599.508
326.686
5.76671
1055.85
662.578
406.53
257.319
810.391
511.71
350.067
212.541
2374.52
810.045
123.993
-438.321
2378.4
750.701
174.074
-601.992
2374.13
824.046
148.744
-415.368
2302.07
730.329
183.927
-580.959
2331.65
829.467
228.743
-297.327
2148.24
692.444
229.491
-476.758
2043.9
768.25
320.232
-44.8089
2356.16
777.155
327.534
-558.149
1836.49
690.418
324.164
-131.441
1907.36
532.943
158.695
-411.677
765.229
194.53
44.8277
-87.1806
1955.96
565.706
179.161
-388.997
790.028
208.647
57.9285
-70.5897
1984.67
606.53
225.113
-341.665
801.065
226.544
76.0838
-51.4257
1787.11
573.053
260.534
-269.956
775.143
234.217
104.736
-17.3369
1634.41
571.514
288.616
-157.264
690.183
247.256
144.166
29.7218
1146.22
466.833
231.685
-44.1717
648.97
326.347
203.525
110.763
1322.41
471.249
228.102
-111.629
653.685
281.882
173.943
70.5587
925.053
455.123
259.394
44.7389
585.258
346.796
227.758
149.992
655.572
416.588
291.699
186.409
491.944
348.491
251.742
194.652
-20.7298
8.34348
8.85028
6.38851
4.97626
-3.60928
5.54313
4.90217
3.45826
2.68722
11.0903
25.7271
18.9991
12.8798
9.88954
30.3915
24.9816
16.4393
10.853
8.27265
44.9046
45.9979
31.241
20.8712
15.9883
124.381
84.5644
53.2416
34.825
26.5055
150.223
100.119
62.9551
41.2641