/*--------------------------------*- C++ -*----------------------------------*\
  =========                 |
  \\      /  F ield         | OpenFOAM: The Open Source CFD Toolbox
   \\    /   O peration     | Website:  https://openfoam.org
    \\  /    A nd           | Version:  11
     \\/     M anipulation  |
\*---------------------------------------------------------------------------*/
FoamFile
{
    format      ascii;
    class       volScalarField;
    location    "2.6";
    object      T;
}
// * * * * * * * * * * * * * * * * * * * * * * * * * * * * * * * * * * * * * //

dimensions      [0 0 0 1 0 0 0];

internalField   nonuniform List<scalar> 
5712
(
539.792
555.534
529.661
548.694
514.961
539.267
489.452
518.359
489.027
511.913
511.796
534.167
525.545
544.889
534.556
551.791
506.609
487.187
525.838
497.718
479.263
458.918
498.552
468.274
547.703
555.104
560.061
564.122
537.837
546.992
554.019
559.774
538.229
523.594
516.601
507.018
534.958
548.38
544.439
544.129
507.539
511.561
521.548
520.696
477.87
481.233
551.291
553.348
526.987
532.87
560.1
562.708
560.117
567.864
567.222
570.82
553.611
565.299
563.948
569.505
540.565
559.74
551.308
564.931
559.356
568.048
562.481
569.148
473.468
461.915
480.501
464.188
442.362
432.029
449.892
434.648
507.242
492.137
500.769
489.777
485.579
465.278
486.946
465.072
455.089
436.027
456.525
435.979
511.924
493.235
513.238
493.102
530.627
556.902
519.108
548.763
524.619
553.314
516.125
545.887
534.952
558.99
520.545
550.287
536.315
559.753
520.623
550.974
554.303
542.713
564.543
555.998
545.049
533.536
560.837
551.163
531.037
520.269
554.312
543.868
459.431
422.978
490.721
515.906
546.163
417.557
454.003
485.428
509.32
537.203
422.761
456.014
485.724
511.773
540.186
522.103
504.435
526.697
509.81
516.354
499.975
524.708
507.633
507.156
491.848
521.543
504.664
407.827
395.921
445.496
433.515
475.687
462.847
498.817
484.824
519.892
504.18
411.849
398.81
446.621
436.781
476.726
466.479
501.866
489.878
522.788
509.146
449.923
444.889
448.197
443.345
415.988
397.69
415.773
396.532
477.866
476.263
479.685
476.99
445.694
442.045
445.585
442.12
414.916
396.319
415.02
396.543
475.06
474.955
474.925
475.09
505.044
503.402
526.807
524.426
505.571
502.427
526.483
522.159
503.594
502.939
526.69
524.979
502.234
502.031
525.54
523.903
485.867
471.996
464.925
488.789
473.769
466.423
482.69
468.604
461.234
486.721
471.17
463.445
474.822
460.687
453.242
483.653
466.954
458.594
383.42
374.987
371.09
419.882
408.25
402.131
447.943
433.808
425.936
467.853
452.663
444.718
482.086
463.459
453.949
384.862
374.239
369.217
425.173
412.735
406.163
452.744
437.479
428.892
472.193
453.898
443.87
484.178
462.985
451.847
413.767
405.024
419.367
410.749
444.872
429.976
455.174
437.478
389.963
367.639
391.169
369.637
391.231
370.367
393.113
372.519
392.755
388.788
392.072
386.561
373.699
377.427
414.896
417.759
442.897
445.717
396.077
400.512
395.991
398.746
380.548
383.819
345.821
328.482
351.288
331.992
348.426
329.027
353.827
333.037
352.553
329.713
359.792
334.95
363.764
338.179
365.786
340.203
387.813
378.48
395.314
382.01
413.332
403.223
420.739
406.441
374.897
361.07
367.557
357.524
399.625
384.019
401.554
384.692
425.301
408.203
426.972
408.513
379.071
363.188
381.146
364.06
355.383
332.109
344.033
326.012
348.588
327.876
340.745
323.549
359.553
335.269
346.054
327.634
361.876
337.445
346.99
328.553
329.2
317.651
321.585
313.785
331.388
320.292
321.864
314.502
335.728
326.341
322.75
316.675
368.926
392.365
351.582
338.753
322.528
387.494
364.296
344.987
332.677
318.52
392.074
368.847
350.249
335.745
320.532
307.801
298.436
305.867
297.166
310.898
301.488
307.275
298.698
317.08
307.586
310.037
301.53
377.423
365.739
354.491
343.143
337.276
327.14
325.068
315.232
313.43
304.912
380.813
366.586
358.298
344.697
341.24
329.149
327.923
316.482
315.548
306.206
362.473
344.403
365.581
346.417
385.48
365.884
387.881
366.527
347.414
331.116
344.467
328.877
368.21
347.715
368.956
348.331
389.59
366.889
390.071
367.329
350.081
332.686
350.856
333.257
331.322
317.051
317.196
305.77
329.714
315.307
316.417
305.089
332.749
318.323
317.721
305.98
334.3
319.036
318.627
306.834
288.517
283.778
281.943
282.911
279.106
277.835
291.947
286.711
284.651
284.568
280.581
279.131
298.289
292.597
290.255
287.16
282.503
280.742
354.36
346.968
343.632
332.759
326.366
323.674
317.398
311.309
308.945
304.869
298.247
295.403
289.031
283.545
281.39
352.969
343.468
339.422
332.161
323.485
319.789
317.344
309.376
306.111
303.865
296.585
293.837
287.806
282.681
280.699
315.22
306.63
300.795
295.948
316.798
307.228
300.936
295.867
315.311
306.731
300.924
296.067
317.349
307.542
301.198
296.104
315.263
306.825
301.231
296.45
317.78
307.863
301.619
296.522
319.296
308.668
301.836
296.479
320.596
309.514
302.286
296.717
316.747
307.688
301.774
296.78
314.646
307.227
301.934
297.397
314.78
306.821
301.523
296.926
313.485
306.607
301.648
297.399
318.375
308.513
302.069
296.829
315.626
307.81
302.253
297.598
319.679
309.289
302.5
297.147
316.454
308.364
302.644
297.957
312.651
305.728
300.669
296.246
309.574
304.704
300.524
296.71
312.652
305.775
300.778
296.374
309.804
304.82
300.607
296.8
312.766
305.898
300.997
296.659
310.485
305.122
300.799
296.983
312.538
305.958
301.231
297.066
311.02
305.404
301.036
297.253
312.231
306.025
301.43
297.492
307.037
303.951
300.259
297.551
305.534
303.575
300.16
297.842
307.553
304.147
300.367
297.636
306.108
303.787
300.262
297.911
308.487
304.518
300.548
297.762
307.091
304.167
300.437
298.028
309.612
305.004
300.845
297.978
308.197
304.638
300.685
298.198
310.672
305.568
301.21
298.218
309.105
305.138
300.974
298.405
312.136
306.626
301.832
298.617
310.397
306.193
301.699
298.941
311.446
306.11
301.511
298.4
309.759
305.67
301.322
298.655
312.751
307.12
302.134
298.83
311.034
306.734
302.078
299.238
313.407
307.622
302.505
299.139
311.732
307.284
302.485
299.572
290.958
287.339
284.631
282.845
281.96
290.953
287.347
284.639
282.851
281.964
291.028
287.377
284.653
282.859
281.97
291.045
287.399
284.669
282.87
281.978
291.126
287.426
284.681
282.877
281.983
291.156
287.461
284.706
282.893
281.996
291.294
287.546
284.758
282.927
282.022
291.495
287.668
284.833
282.976
282.059
291.254
287.501
284.726
282.905
282.005
291.379
287.543
284.746
282.918
282.014
291.207
287.461
284.7
282.889
281.993
291.316
287.502
284.721
282.901
282.002
291.377
287.577
284.773
282.936
282.029
291.495
287.612
284.789
282.945
282.036
291.569
287.692
284.843
282.982
282.063
291.664
287.712
284.85
282.985
282.066
290.983
287.334
284.625
282.84
281.956
291.014
287.332
284.621
282.837
281.954
291.037
287.362
284.641
282.85
281.963
291.055
287.353
284.633
282.845
281.959
291.126
287.405
284.665
282.866
281.975
291.128
287.391
284.654
282.858
281.969
291.224
287.449
284.69
282.881
281.986
291.21
287.435
284.68
282.874
281.981
291.277
287.475
284.704
282.89
281.993
533.404
530.824
532.92
530.344
532.369
529.926
532.514
530.195
534.355
532.13
538.118
538.554
537.085
536.718
538.476
539.19
538.539
539.099
565.001
571.292
572.616
572.914
572.978
558.261
569.447
572.198
572.824
572.957
565.048
571.315
572.622
572.916
572.979
558.299
569.477
572.205
572.827
572.958
565.051
571.33
572.627
572.917
572.979
558.303
569.498
572.213
572.829
572.958
565.246
571.386
572.641
572.92
572.98
558.522
569.564
572.229
572.833
572.959
565.777
571.5
572.665
572.926
572.981
559.168
569.708
572.259
572.839
572.961
566.212
571.546
572.67
572.926
572.981
560.847
570.035
572.322
572.851
572.963
566.124
571.544
572.672
572.927
572.981
560.225
569.91
572.299
572.847
572.963
566.216
571.54
572.668
572.925
572.981
561.121
570.099
572.335
572.854
572.964
566.257
571.549
572.67
572.926
572.981
561.15
570.117
572.337
572.854
572.964
428.151
463.831
461.428
423.809
407.083
408.566
410.422
413.294
422.176
426.135
452.222
461.247
460.123
469.788
436.218
440.746
423.95
427.321
417.201
419.252
371.05
353.201
306.34
299.832
302.795
299.6
304.403
369.233
363.437
345.664
353.111
349.819
326.116
336.335
332.241
320.23
324.137
318.53
365.922
339.504
323.242
319.397
327.42
322.951
314.864
313.241
311.399
307.687
316.586
313.548
367.679
346.128
354.265
334.792
327.463
340.031
315.539
308.343
318.511
352.424
336.023
321.304
305.467
286.382
341.624
329.417
315.898
300.863
283.384
303.001
298.317
292.175
284.958
277.065
297.2
293.467
288.525
282.686
276.292
299.852
295.687
290.188
283.712
276.638
296.994
293.293
288.391
282.599
276.261
301.284
296.884
291.09
284.276
276.83
350.756
333.459
318.393
302.878
285.334
344.97
327.772
313.009
298.171
282.028
335.249
323.537
310.511
296.496
281.276
337.212
321.61
307.81
294.162
280.266
334.636
319.398
305.9
292.738
279.653
319.839
311.746
301.884
290.854
279.06
327.785
317.598
305.904
293.27
279.906
324.39
314.84
303.759
291.813
279.346
314.973
307.954
299.165
289.187
278.484
318.11
310.289
300.738
290.085
278.776
313.538
306.809
298.325
288.664
278.302
349.321
333.16
318.62
303.188
285.484
330.941
320.72
308.802
295.559
280.948
317.596
310.136
300.848
290.291
278.884
314.374
307.615
299.059
289.219
278.523
321.143
313.043
303.092
291.792
279.457
317.473
310.193
301.044
290.516
278.991
310.505
304.532
296.842
287.881
278.071
309.082
303.339
295.914
287.271
277.851
307.447
301.958
294.841
286.571
277.603
304.189
299.285
292.872
285.368
277.199
311.934
305.596
297.515
288.216
278.163
309.329
303.514
296.016
287.315
277.862
350.469
334.553
320.123
304.574
286.178
336.257
325.221
312.63
298.496
282.297
342.523
329.205
315.602
300.595
283.215
327.459
318.332
307.286
294.675
280.576
321.34
313.373
303.486
292.126
279.587
331.572
321.443
309.534
296.166
281.208
311.086
304.993
297.165
288.067
278.131
304.768
299.772
293.247
285.611
277.284
313.642
307.058
298.683
289.007
278.455
506.562
543.27
500.102
538.321
477.132
520.034
483.364
525.05
488.912
475.494
518.83
492.044
464.717
450.443
493.027
464.35
522.933
536.667
551.574
557.909
516.77
530.199
547.705
554.705
531.408
507.141
510.585
494.517
520.51
542.617
542.335
543.654
505.235
511.003
519.825
520.294
476.345
480.87
549.031
552.854
524.569
532.293
558.334
562.344
550.023
564.542
563.677
569.628
543.925
562.091
560.859
568.411
531.365
556.709
546.878
563.429
557.775
567.485
562.165
569.027
469.367
461.618
477.931
464.239
441.461
434.204
449.094
436.092
503.905
491.481
495.13
488.3
484.434
465.44
486.666
465.166
454.817
436.902
456.501
436.296
510.387
493.007
512.835
493.067
527.889
555.944
518.413
548.504
520.012
551.691
514.708
545.357
533.66
558.52
520.257
550.176
535.966
559.619
520.556
550.947
537.48
523.117
559.199
549.335
529.735
516.195
555.874
545.13
518.303
506.505
550.161
539.144
460.638
433.211
485.934
510.185
544.016
430.299
456.349
479.871
502.18
534.48
430.881
457.684
483.854
509.461
539.3
503.448
490.015
518.916
506.497
499.72
486.911
518.313
505.45
493.653
481.247
517.248
504.146
423.437
414.844
449.476
439.947
471.925
461.146
493.317
481.455
518.355
505.53
422.686
411.916
450.406
443.033
476.521
469.015
500.759
491.374
522.66
511.163
452.108
448.504
449.729
445.725
421.547
405.735
418.902
401.138
478.36
477.339
479.954
478.33
446.627
443.358
445.897
442.534
416.584
398.683
415.554
397.27
475.463
475.628
475.072
475.311
505.112
503.842
526.877
524.693
505.29
502.953
526.434
522.605
503.723
503.237
526.768
525.144
502.295
502.142
525.573
523.96
481.741
478.101
495.72
490.832
478.684
474.498
494.446
488.661
472.811
468.546
492.571
485.52
407.419
402.286
432.402
426.904
453.15
447.219
472.557
466.714
492.217
482.76
401.885
395.807
436.607
429.862
461.109
452.931
480.036
469.949
493.305
480.965
411.653
405.026
420.269
411.764
437.173
425.885
453.422
436.079
394.004
374.755
397.525
377.126
393.512
376.597
397.485
378.791
395.811
390.919
395.031
389.844
379.163
382.172
415.751
418.082
442.526
445.674
398.118
401.223
397.895
399.42
383.646
384.932
359.476
341.15
361.252
342.334
360.925
340.794
362.284
341.954
363.722
340.195
366.432
342.226
367.791
342.742
367.193
341.798
394.303
385.937
398.674
386.395
416.165
408.364
422.049
409.512
380.023
366.196
376.826
366.05
401.421
386.391
402.131
385.464
426.061
409.894
427.245
409.078
381.818
365.979
382.014
364.959
361.936
338.233
349.232
330.525
359.502
336.73
349.086
330.307
363.148
338.905
348.935
330.237
363.011
338.641
347.921
329.405
355.829
350.658
338.281
333.464
357.181
352.349
337.719
333.132
359.409
355.652
336.911
333.081
388.972
409.383
372.313
356.205
334.154
407.895
388.883
371.99
355.202
332.157
405.775
384.515
365.196
348.443
329.657
344.108
336.27
326.643
316.193
346.595
339.283
327.016
316.976
350.534
344.019
327.612
318.103
401.498
393.675
382.752
375.769
366.142
360.116
349.28
342.439
327.185
318.069
397.697
385.845
376.931
365.472
358.375
347.605
341.925
330.826
324.933
314.981
372.46
355.991
370.991
352.709
394.254
377.134
392.52
372.603
352.926
336.933
354.139
339.194
370.952
350.876
369.809
349.284
391.922
369.942
390.799
368.252
352.94
335.648
351.748
334.154
336.296
321.784
321.126
309.201
338.068
323.384
322.6
310.609
335.436
320.804
319.924
307.858
335.177
319.822
319.326
307.409
329.607
327.314
299.038
297.228
333.552
330.837
300.233
298.196
338.586
334.389
301.59
297.666
386.674
381.652
369.292
364.782
354.18
350.12
335.025
329.125
300.653
294.566
375.268
370.305
355.248
350.752
337.462
333.249
318.642
313.992
294.235
289.62
323.851
312.193
304.43
298.324
324.44
312.292
304.29
298.077
323.361
311.961
304.33
298.257
324.029
312.023
304.177
298.057
322.432
311.553
304.352
298.449
323.245
311.579
304.138
298.187
322.86
311.138
303.523
297.607
321.865
310.404
302.898
297.133
321.251
310.814
303.954
298.281
318.164
309.78
303.804
298.786
320.896
310.959
304.351
298.812
318.539
310.174
304.159
299.159
321.172
310.488
303.472
297.828
317.72
309.357
303.418
298.51
320.632
309.968
302.985
297.494
317.153
308.884
303.041
298.273
322.651
311.936
304.683
298.877
320.809
311.531
304.918
299.651
322.176
311.742
304.638
298.878
320.527
311.408
304.855
299.628
321.4
311.417
304.6
298.976
320.117
311.188
304.742
299.592
320.046
310.91
304.531
299.213
319.482
310.894
304.645
299.625
318.685
310.434
304.443
299.538
318.913
311.163
304.885
300.941
317.58
310.956
304.951
301.499
318.849
311.086
304.845
300.917
317.552
310.881
304.901
301.461
318.639
310.91
304.708
300.804
317.392
310.716
304.773
301.37
318.18
310.615
304.57
300.7
316.991
310.449
304.616
301.257
317.349
310.178
304.392
300.605
316.189
310.067
304.408
301.12
315.478
309.137
303.702
300.137
314.014
308.971
303.752
300.615
316.348
309.665
304.061
300.384
315.031
309.545
304.111
300.899
314.707
308.623
303.282
299.798
313.129
308.39
303.322
300.265
314.048
308.12
302.889
299.466
312.407
307.825
302.895
299.912
292.332
288.159
285.128
283.166
282.204
292.265
288.137
285.118
283.161
282.2
292.282
288.124
285.106
283.152
282.193
292.191
288.088
285.087
283.14
282.185
292.23
288.083
285.078
283.133
282.179
292.105
288.031
285.052
283.117
282.167
291.955
287.944
285
283.083
282.141
291.745
287.82
284.925
283.035
282.105
292.108
288.009
285.034
283.105
282.157
292.135
287.989
285.016
283.092
282.147
292.216
288.058
285.061
283.122
282.17
292.221
288.033
285.042
283.108
282.16
291.966
287.93
284.987
283.074
282.134
292.01
287.918
284.974
283.065
282.127
291.773
287.815
284.918
283.03
282.1
291.843
287.819
284.914
283.027
282.097
292.425
288.183
285.137
283.172
282.208
292.506
288.2
285.143
283.175
282.21
292.392
288.159
285.121
283.161
282.2
292.478
288.181
285.131
283.166
282.204
292.342
288.12
285.096
283.144
282.187
292.425
288.144
285.108
283.151
282.192
292.308
288.084
285.072
283.128
282.174
292.353
288.1
285.081
283.133
282.178
292.277
288.06
285.057
283.118
282.167
530.574
529.156
530.745
529.297
531.248
529.79
532.388
530.815
534.655
532.962
538.256
538.751
537.274
537.062
538.565
539.303
538.57
539.137
564.651
571.244
572.608
572.913
572.978
557.76
569.352
572.181
572.821
572.957
564.786
571.278
572.616
572.915
572.979
557.949
569.408
572.192
572.825
572.958
564.925
571.312
572.624
572.917
572.979
558.174
569.466
572.206
572.828
572.958
565.246
571.386
572.641
572.92
572.98
558.587
569.565
572.228
572.833
572.959
565.833
571.509
572.667
572.926
572.981
559.315
569.728
572.262
572.84
572.961
566.244
571.553
572.672
572.926
572.981
560.92
570.052
572.326
572.852
572.964
566.17
571.553
572.674
572.927
572.981
560.337
569.933
572.304
572.848
572.963
566.235
571.544
572.669
572.926
572.981
561.162
570.109
572.337
572.854
572.964
566.263
571.551
572.67
572.926
572.981
561.164
570.121
572.338
572.854
572.964
428.36
463.635
460.628
424.384
417.968
423.987
415.611
423.088
444.669
460.813
448.497
462.755
282.834
283.465
284.875
287.14
290.39
294.75
283.37
284.015
285.445
287.723
290.924
295.122
282.426
282.224
283.101
282.969
284.609
284.638
287.051
287.388
290.515
291.243
294.937
295.77
300.306
307.055
315.145
324.626
333.712
339.659
300.344
306.53
313.523
320.813
327.209
331.189
281.898
280.553
278.749
276.595
274.223
282.469
281.037
279.116
276.824
274.301
283.742
282.114
279.934
277.335
274.474
285.786
283.845
281.247
278.154
274.753
288.717
286.322
283.125
279.325
275.151
292.64
289.631
285.63
280.885
275.681
282.383
280.964
279.061
276.79
274.289
282.965
281.457
279.434
277.023
274.368
284.256
282.55
280.264
277.54
274.544
286.311
284.287
281.582
278.362
274.824
289.195
286.724
283.428
279.514
275.215
292.97
289.907
285.837
281.015
275.725
281.53
280.241
278.511
276.446
274.173
281.347
280.086
278.394
276.373
274.148
282.139
280.757
278.904
276.691
274.256
282.02
280.657
278.827
276.643
274.239
283.502
281.912
279.78
277.239
274.442
283.528
281.934
279.797
277.249
274.445
285.707
283.779
281.197
278.123
274.742
286.012
284.037
281.393
278.245
274.784
288.831
286.42
283.2
279.372
275.166
289.487
286.975
283.62
279.634
275.255
292.811
289.778
285.741
280.954
275.704
293.561
290.411
286.219
281.251
275.804
297.621
293.82
288.794
282.856
276.35
303.639
298.856
292.589
285.223
277.157
310.778
304.786
297.055
288.025
278.122
318.998
311.545
302.157
291.281
279.275
326.629
317.72
306.848
294.369
280.435
331.531
321.66
309.859
296.39
281.219
297.652
293.844
288.812
282.869
276.355
303.172
298.468
292.301
285.046
277.097
309.371
303.635
296.196
287.485
277.933
315.769
308.935
300.192
290.007
278.808
321.312
313.494
303.637
292.207
279.587
324.738
316.306
305.771
293.583
280.08
282.945
283.807
285.466
288.016
291.603
296.362
283.485
284.365
286.048
288.603
292.11
296.63
282.539
282.341
283.448
283.33
285.215
285.275
287.964
288.361
291.796
292.606
296.709
297.709
302.339
309.408
317.611
326.821
335.211
340.189
302.147
308.521
315.513
322.53
328.374
331.601
282
280.64
278.814
276.636
274.237
282.779
281.3
279.317
276.95
274.344
284.279
282.572
280.284
277.554
274.549
286.583
284.524
281.767
278.48
274.864
289.82
287.265
283.848
279.78
275.306
294.11
290.892
286.6
281.497
275.89
282.488
281.053
279.129
276.832
274.304
283.283
281.727
279.641
277.153
274.413
284.803
283.016
280.621
277.764
274.621
287.11
284.97
282.105
278.691
274.936
290.274
287.647
284.136
279.959
275.367
294.345
291.086
286.744
281.587
275.921
281.632
280.328
278.578
276.488
274.187
281.453
280.177
278.462
276.416
274.162
282.454
281.025
279.108
276.82
274.299
282.348
280.935
279.04
276.777
274.285
284.052
282.381
280.138
277.463
274.518
284.106
282.427
280.174
277.485
274.526
286.536
284.486
281.738
278.463
274.858
286.896
284.791
281.97
278.608
274.908
289.996
287.416
283.964
279.852
275.331
290.729
288.038
284.436
280.147
275.431
294.427
291.164
286.808
281.628
275.934
295.332
291.932
287.391
281.991
276.058
299.483
295.423
290.032
283.64
276.619
305.804
300.732
294.048
286.152
277.477
313.066
306.788
298.627
289.035
278.471
321.06
313.372
303.612
292.227
279.606
328.058
319.003
307.884
295.054
280.678
332.041
322.122
310.235
296.641
281.31
299.301
295.263
289.908
283.562
276.593
305.002
300.05
293.528
285.826
277.365
311.208
305.234
297.444
288.282
278.208
317.365
310.333
301.292
290.715
279.054
322.402
314.455
304.399
292.701
279.759
325.125
316.649
306.044
293.76
280.143
371.861
353.893
309.184
302.127
305.993
302.155
307.488
378.798
377.133
355.132
367.6
333.625
345.928
326.756
331.163
324.271
372.279
346.28
329.495
324.528
333.251
327.435
318.116
317.241
316.32
311.854
322.083
318.163
370.216
348.137
358.751
337.828
331.303
345.246
319.369
311.991
323.016
353.306
336.852
322.02
305.988
286.595
342.32
330.065
316.443
301.243
283.529
305.622
300.592
293.947
286.087
277.454
299.303
295.279
289.925
283.573
276.596
302.789
298.227
292.159
284.965
277.068
299.335
295.312
289.952
283.589
276.601
304.122
299.343
293.003
285.492
277.248
361.605
343.944
327.364
309.155
287.8
360.486
342.687
325.588
306.708
285.054
344.957
332.742
318.219
301.697
283.148
353.867
337.573
321.269
303.244
283.498
327.144
318.424
307.324
294.436
280.315
337.494
326.72
313.482
298.328
281.691
321.227
313.6
303.719
292.165
279.523
325.074
316.759
306.07
293.626
280.021
319.063
311.822
302.387
291.329
279.233
356.253
339.905
324.441
307.313
287.168
337.655
326.954
313.96
299.02
282.194
323.579
315.531
305.198
293.137
279.879
319.223
311.938
302.511
291.463
279.304
326.745
318.115
307.2
294.495
280.408
321.718
313.985
304.081
292.496
279.683
313.534
307.194
298.941
289.234
278.54
312.81
306.615
298.496
288.932
278.426
312.03
305.983
298.012
288.61
278.308
308.04
302.638
295.492
287.042
277.775
317.121
310.211
301.192
290.6
278.991
313.643
307.316
299.021
289.251
278.532
353.214
337.139
322.356
306.185
286.845
338.245
327.059
314.158
299.543
282.69
347.128
333.558
319.3
303.163
284.18
330.384
320.986
309.45
296.114
281.092
324.992
316.652
306.127
293.859
280.197
336.708
326.199
313.472
298.818
282.168
314.665
308.148
299.659
289.676
278.688
308.145
302.718
295.553
287.085
277.792
317.881
310.82
301.677
290.948
279.13
280.734
295.679
309.346
321.161
330.488
337.46
488.433
482.733
459.967
465.559
473.537
464.887
450.742
440.531
507.106
521.938
500.975
514.307
492.067
483.855
503.123
479.138
474.511
452.327
456.836
466.715
459.062
444.636
435.852
497.682
508.451
492.327
501.794
484.04
476.426
492.045
466.247
462.857
441.678
444.996
456.78
450.561
435.708
428.26
483.317
493.788
479.036
488.511
472.67
466.223
480.568
452.993
450.483
430.557
433.107
445.626
440.266
425.73
419.292
469.837
480.961
466.389
476.627
461.21
455.04
469.585
443.42
441.381
422.459
424.621
437.168
432.525
418.236
412.332
459.685
471.556
456.74
468.079
452.555
447.105
461.94
436.946
435.139
416.929
418.896
431.357
427.283
413.014
407.516
453.014
466.469
450.314
463.087
446.834
441.971
456.945
411.753
408.688
433.714
437.901
404.418
399.12
426.884
418.504
389.842
369.878
388.877
371.462
385.156
384.543
373.99
407.689
404.826
428.164
431.817
400.823
395.872
422.097
414.309
385.383
366.009
384.569
367.759
381.07
380.902
370.084
401.207
398.669
419.887
422.847
395.101
390.552
414.819
408.067
380.794
361.158
379.919
362.758
376.729
376.499
364.912
393.122
390.902
410.509
412.942
387.563
383.015
406.209
399.878
373.981
355.035
373.218
356.47
370.304
370.036
358.674
386.613
384.587
403.407
405.557
381.583
377.266
399.528
393.684
368.084
350.383
367.418
351.479
365.002
364.685
353.756
381.942
380.049
398.472
400.462
377.428
373.577
394.844
389.413
364.294
347.234
363.762
348.32
361.597
361.479
350.854
540.39
556.042
529.692
548.652
514.972
539.249
489.441
518.34
489.015
511.89
511.813
534.152
525.596
544.868
535.265
552.434
506.606
487.179
525.823
497.707
479.248
458.905
498.534
468.26
548.155
555.41
560.422
564.354
537.836
546.978
553.965
559.732
538.209
523.587
516.588
507.01
534.948
548.358
544.433
544.125
507.53
511.554
521.539
520.689
477.859
481.223
551.283
553.345
526.979
532.864
560.094
562.706
560.326
567.945
567.367
570.873
553.592
565.291
563.921
569.495
540.553
559.735
551.292
564.925
559.35
568.046
562.479
569.147
473.46
461.908
480.492
464.181
442.351
432.02
449.88
434.639
507.234
492.131
500.762
489.771
485.571
465.271
486.938
465.065
455.078
436.019
456.516
435.972
511.917
493.229
513.231
493.096
530.619
556.899
519.103
548.761
524.612
553.311
516.12
545.885
534.946
558.987
520.541
550.285
536.31
559.751
520.619
550.973
554.574
543.02
564.653
556.148
545.027
533.512
560.826
551.147
531.025
520.257
554.305
543.861
459.424
422.97
490.714
515.898
546.159
417.55
453.996
485.421
509.311
537.198
422.754
456.007
485.718
511.767
540.183
522.405
504.677
526.901
509.977
516.336
499.968
524.701
507.633
507.145
491.842
521.539
504.663
407.821
395.917
445.491
433.511
475.681
462.842
498.81
484.819
519.889
504.178
411.843
398.805
446.615
436.777
476.72
466.474
501.861
489.874
522.785
509.144
449.917
444.884
448.191
443.34
415.981
397.685
415.766
396.527
477.861
476.259
479.68
476.985
445.688
442.04
445.579
442.115
414.91
396.314
415.014
396.538
475.055
474.951
474.92
475.086
505.04
503.399
526.804
524.424
505.567
502.424
526.48
522.156
503.59
502.936
526.687
524.976
502.23
502.027
525.538
523.9
486.069
472.168
465.088
488.945
473.907
466.549
482.69
468.608
461.238
486.725
471.179
463.456
474.821
460.69
453.246
483.655
466.959
458.601
383.418
374.986
371.09
419.88
408.249
402.132
447.941
433.808
425.938
467.851
452.665
444.721
482.086
463.462
453.954
384.859
374.238
369.217
425.171
412.734
406.163
452.741
437.479
428.893
472.191
453.899
443.872
484.177
462.987
451.85
413.72
404.996
419.32
410.722
444.84
429.956
455.142
437.458
389.868
367.652
391.034
369.62
391.154
370.317
393.041
372.478
392.713
388.743
392.043
386.53
373.66
377.391
414.876
417.744
442.881
445.704
396.049
400.494
395.969
398.731
380.523
383.803
345.839
328.475
351.29
331.973
348.405
329.02
353.812
333.032
352.531
329.705
359.769
334.942
363.745
338.171
365.773
340.196
387.796
378.468
395.297
381.999
413.318
403.212
420.725
406.431
374.88
361.06
367.539
357.513
399.611
384.009
401.543
384.684
425.288
408.194
426.961
408.505
379.057
363.179
381.134
364.052
355.369
332.102
344.025
326.007
348.574
327.869
340.736
323.544
359.541
335.262
346.046
327.629
361.866
337.44
346.984
328.548
329.156
317.589
321.575
313.769
331.384
320.291
321.859
314.497
335.718
326.335
322.744
316.67
368.916
392.356
351.572
338.743
322.522
387.486
364.287
344.979
332.67
318.515
392.065
368.837
350.24
335.737
320.527
307.742
298.369
305.863
297.159
310.898
301.492
307.271
298.693
317.077
307.586
310.033
301.527
377.417
365.735
354.485
343.139
337.27
327.137
325.064
315.229
313.426
304.909
380.806
366.581
358.29
344.692
341.233
329.145
327.917
316.479
315.544
306.203
362.465
344.398
365.573
346.411
385.473
365.879
387.873
366.521
347.407
331.111
344.46
328.872
368.203
347.71
368.95
348.327
389.583
366.884
390.064
367.325
350.075
332.682
350.851
333.253
331.316
317.047
317.191
305.767
329.708
315.303
316.413
305.086
332.744
318.319
317.718
305.978
334.295
319.033
318.624
306.832
288.448
283.698
281.858
282.921
279.093
277.815
291.955
286.719
284.657
284.564
280.582
279.132
298.29
292.6
290.258
287.158
282.503
280.743
354.358
346.967
343.631
332.757
326.365
323.674
317.396
311.309
308.945
304.868
298.247
295.404
289.03
283.545
281.39
352.966
343.466
339.422
332.158
323.484
319.788
317.342
309.375
306.11
303.863
296.585
293.837
287.805
282.681
280.699
315.213
306.624
300.788
295.939
316.779
307.216
300.926
295.856
315.307
306.729
300.923
296.067
317.347
307.541
301.197
296.103
315.259
306.823
301.23
296.45
317.777
307.861
301.617
296.521
319.293
308.666
301.835
296.478
320.593
309.512
302.285
296.716
316.744
307.686
301.773
296.779
314.643
307.225
301.933
297.396
314.776
306.819
301.522
296.926
313.482
306.605
301.647
297.398
318.372
308.511
302.068
296.828
315.623
307.808
302.252
297.598
319.676
309.287
302.499
297.146
316.451
308.362
302.642
297.956
312.648
305.724
300.663
296.237
309.568
304.7
300.52
296.703
312.649
305.773
300.777
296.374
309.802
304.818
300.606
296.8
312.763
305.896
300.996
296.659
310.482
305.121
300.798
296.983
312.535
305.956
301.23
297.065
311.017
305.402
301.035
297.252
312.228
306.023
301.428
297.491
307.032
303.947
300.256
297.545
305.523
303.569
300.156
297.838
307.551
304.145
300.366
297.636
306.107
303.786
300.261
297.909
308.484
304.516
300.547
297.761
307.089
304.166
300.436
298.027
309.609
305.002
300.844
297.977
308.194
304.636
300.683
298.197
310.669
305.566
301.208
298.217
309.102
305.136
300.973
298.404
312.133
306.624
301.831
298.616
310.394
306.191
301.697
298.94
311.443
306.108
301.509
298.399
309.756
305.668
301.32
298.654
312.748
307.118
302.133
298.829
311.032
306.732
302.076
299.237
313.404
307.62
302.503
299.138
311.729
307.283
302.484
299.571
290.954
287.337
284.63
282.845
281.959
290.948
287.345
284.638
282.85
281.963
291.028
287.377
284.653
282.859
281.97
291.045
287.399
284.669
282.87
281.978
291.125
287.426
284.681
282.877
281.984
291.155
287.461
284.706
282.893
281.996
291.294
287.546
284.758
282.927
282.022
291.494
287.668
284.833
282.976
282.059
291.254
287.5
284.726
282.906
282.005
291.378
287.543
284.746
282.918
282.015
291.207
287.461
284.701
282.889
281.993
291.315
287.501
284.721
282.901
282.002
291.377
287.577
284.773
282.936
282.029
291.495
287.612
284.789
282.946
282.036
291.568
287.692
284.843
282.982
282.063
291.663
287.712
284.85
282.985
282.066
290.98
287.332
284.624
282.84
281.956
291.012
287.331
284.62
282.837
281.953
291.037
287.361
284.641
282.85
281.963
291.054
287.353
284.633
282.845
281.959
291.125
287.405
284.665
282.866
281.975
291.128
287.391
284.655
282.858
281.969
291.224
287.449
284.69
282.881
281.987
291.21
287.435
284.68
282.874
281.981
291.277
287.475
284.704
282.89
281.994
533.47
530.899
532.93
530.353
532.372
529.929
532.514
530.195
534.353
532.129
538.116
538.552
537.084
536.717
538.475
539.188
538.537
539.097
565.055
571.306
572.619
572.915
572.979
558.295
569.456
572.2
572.825
572.958
565.045
571.314
572.622
572.916
572.979
558.303
569.478
572.205
572.827
572.958
565.051
571.33
572.627
572.917
572.979
558.304
569.499
572.213
572.829
572.958
565.246
571.386
572.641
572.92
572.98
558.523
569.564
572.229
572.833
572.959
565.777
571.5
572.665
572.926
572.981
559.168
569.708
572.259
572.839
572.961
566.212
571.546
572.67
572.926
572.981
560.846
570.035
572.322
572.851