/*--------------------------------*- C++ -*----------------------------------*\
  =========                 |
  \\      /  F ield         | OpenFOAM: The Open Source CFD Toolbox
   \\    /   O peration     | Website:  https://openfoam.org
    \\  /    A nd           | Version:  11
     \\/     M anipulation  |
\*---------------------------------------------------------------------------*/
FoamFile
{
    format      ascii;
    class       volScalarField;
    location    "0.1";
    object      gradTy;
}
// * * * * * * * * * * * * * * * * * * * * * * * * * * * * * * * * * * * * * //

dimensions      [0 -1 0 1 0 0 0];

internalField   nonuniform List<scalar> 
5712
(
19093.6
10648.5
27197.8
19468.3
28737.5
23779.3
38943.5
62963.9
54492.2
83456.1
37858
38042.6
23781.9
22215.2
13335
9420.44
22658.6
18135.4
21510.9
21055.8
26875.9
17502.9
41137.8
22970.1
15093.7
16353.1
8597.68
9671.36
14654.2
18181.9
9163.3
11384.5
35566.6
31101.3
27850.1
17123.8
25141.4
20569
13419.9
17058.5
19798.8
20772.8
61630.2
64523.9
30439.2
33611.1
34404.6
27730
26858.6
14652
13328.5
14760
27078.2
43065.7
13818.7
19460
32139.2
52592.3
19195.5
26871.9
28985.4
63919.6
20250
44330.2
6150.37
25717.2
4569.15
18429.7
12794.9
13736.3
14862.3
14868
11190.1
8571.62
14041
9141.84
19910.8
27387.3
19685.2
25106.8
14964.8
15427
14991.3
15512.6
16049.9
9431.41
16619
9380.36
17446.7
28448.5
16198.5
28713.3
44717.5
73891.5
52345.6
107975
45770.9
84088
50075
117151
42813.9
64962.7
53289.4
103801
42312.4
60140.6
54104.3
103149
23754.5
28217.1
61570.4
98413.6
26346.5
27422.1
72403.2
105179
28193.3
25644.4
83318.4
108575
17804.5
9791.7
27667.9
45152
98952.6
8700.52
15801.9
25471.2
36059.4
111456
8125.01
13652.1
23000.1
44151.2
130642
3579.63
2443.25
1606.15
13210.2
5361.98
3292.11
4354.46
13981.3
7532.2
3355.47
7692.65
15092.4
5928.46
3347.25
10711.1
6005.7
16988.1
8791.17
18372.3
8809.55
10234.6
16855.6
5747.56
3300.29
10220.8
6043.73
16150.1
8984.79
21142.8
11059.9
10542.9
16619.3
10227.4
7533.09
9599.07
7347.73
5954.91
3951.74
5595.71
3909.95
15549.7
10623.3
16634.4
11018.9
8982.08
7172.54
8837.78
7106.95
5236.29
3936.27
5154.78
3917.35
14527.7
10016.5
14254
9806.72
20018.5
12958
9968.16
14935
21315.6
13371.1
10003.5
15043.6
19072.4
12241.7
10188.9
14893
18507.5
11814.3
10618.8
14644.9
1041.37
275.408
68.2208
510.02
116.031
37.1064
1568.22
283.767
73.6432
951.235
295.53
51.5887
1317.76
289.283
82.9642
1692.42
428.994
97.3514
1288.16
345.812
84.4762
2211.37
588.417
143.42
2759.09
703.229
170.244
2939.06
729.63
169.229
2634.29
513.369
96.3636
1413.95
390.757
90.1057
2532.16
662.603
145.089
3395.54
797.646
158.995
3552.04
778.837
149.599
2770.82
514.765
80.3147
18345.4
12994.6
26418.7
16785.9
27776.6
16839.6
45657.1
23122.5
8711.57
5075.33
9761.19
5331.68
10668.9
6178.28
12347.3
6526.47
12368.8
9607.13
10341.8
8616.74
8262.32
9489.85
21609.2
24222.1
30697.8
34345.3
14667.1
17315.9
12448.4
13564.3
11189.2
12971.3
2366.56
669.62
2455.99
786.244
2870.16
718.432
2892.04
824.664
3419.48
780.351
3712.9
1027.03
4242.88
1235.69
4963.62
1290.86
7477.06
4243.47
9315.39
4578.18
10486.5
6718.75
13310.1
7231.9
6784.01
2530.93
5751.71
2316.61
11238.9
4809.28
12188.6
4776.24
16119.5
7613.76
16964.5
7549.22
7893.85
2667.64
8549.34
2662.54
2482.19
676.692
1139.6
352.846
1907.14
502.07
1019.4
301.517
2923.57
819.292
1210.2
377.403
3122.76
903.066
1209.22
375.326
150.395
38.1602
191.507
52.3953
158.817
45.7976
206.446
64.7253
202.964
79.7209
242.466
97.5874
1904.88
4448.79
1075.71
730.614
264.468
3456.94
1503.93
561.612
445.328
159.569
4626.95
2590.27
1425.9
666.821
209.109
7.34987
1.08495
13.1851
4.08599
9.37418
1.36642
17.9457
5.70898
20.825
3.73854
31.4447
10.2211
2324.03
1248.51
848.166
384.661
304.936
121.071
185.669
56.7876
66.9571
21.9945
2629.45
1266.97
1240.17
474.529
604.407
196.493
272.361
81.6394
100.101
35.2209
1642.89
511.989
1765.38
565.047
3012.04
1255.78
3086.44
1335.49
922.843
257.832
817.136
221.305
1824.58
581.831
1803.11
577.212
3080.72
1405.09
3027.92
1392.68
985.414
268.201
979.903
267.935
405.494
101.908
137.554
42.1994
352.451
86.4398
122.184
35.9111
444.046
107.672
146.285
44.3991
453.761
109.597
159.012
46.4788
0.16496
0.0448268
0.0112462
1.70447
0.153448
0.0306614
-0.0611971
0.0676334
0.0195572
2.1344
0.210796
0.0508607
0.497815
0.276371
0.0853708
3.24228
0.403256
0.105259
462.929
128.147
32.8613
133.753
38.2512
10.3209
38.2342
10.8094
3.09475
13.1367
3.26213
0.900583
5.95191
0.871954
0.216509
480.156
128.028
28.4215
147.203
35.4896
7.68126
48.9122
10.1368
2.15836
18.2355
3.3493
0.662859
10.8531
1.2545
0.218056
98.2374
11.4983
1.30917
0.135294
124.504
14.7969
1.67443
0.165472
103.808
12.0516
1.36308
0.140748
134.665
16.5165
1.92432
0.195544
111.91
12.2508
1.46844
0.166727
159.028
18.3182
2.27898
0.257382
202.026
22.6726
2.45911
0.233568
216.181
24.4777
2.51788
0.229843
105.413
13.067
1.66932
0.194859
55.6446
7.06423
0.93342
0.122792
77.5109
9.61708
1.27917
0.168875
47.5312
6.10054
0.819115
0.11309
128.859
16.0316
1.93934
0.205923
60.4642
7.74151
0.996058
0.126227
141.951
17.7832
2.0952
0.218975
61.7617
8.08734
1.03917
0.13295
44.7858
6.31559
0.816448
0.0990047
16.29
2.70936
0.40696
0.0600186
45.9653
6.45744
0.837354
0.103777
18.1616
2.94143
0.434304
0.0641241
51.3498
6.80317
0.893476
0.115019
24.677
3.61838
0.508677
0.0731014
45.4977
5.83008
0.78782
0.109408
30.0944
3.98562
0.562623
0.0820932
35.6565
4.80371
0.663059
0.0982143
5.37386
1.12883
0.167721
0.0217642
1.73583
0.57015
0.0881354
0.0110739
6.54685
1.32692
0.193903
0.0252948
2.19736
0.685573
0.103009
0.0127303
9.88296
1.76067
0.239075
0.0296782
3.50791
0.932877
0.129665
0.0153705
14.8675
2.30782
0.302188
0.0370033
5.75343
1.26414
0.165376
0.0190152
18.7273
2.78793
0.373777
0.0464801
7.33414
1.54647
0.197714
0.0223618
22.8893
3.41467
0.427934
0.050466
8.59708
1.91374
0.249716
0.0279601
21.034
3.14666
0.402881
0.0481446
7.61225
1.74724
0.225838
0.0253352
23.9825
3.58322
0.430311
0.04913
8.98891
2.03972
0.262995
0.0292802
26.3467
3.77314
0.445698
0.0507745
9.46233
2.14775
0.275367
0.0305875
0.0132918
0.00168542
0.000201441
2.29623e-05
2.24927e-06
0.0153241
0.00188825
0.000221269
2.48067e-05
2.40124e-06
0.0141962
0.00187041
0.000222963
2.52256e-05
2.45546e-06
0.0179567
0.00217836
0.00025043
2.77201e-05
2.66237e-06
0.0167258
0.00208603
0.000242823
2.72642e-05
2.64709e-06
0.0226635
0.00243957
0.000273635
3.01327e-05
2.89034e-06
0.0211228
0.00259206
0.000300174
3.32967e-05
3.19648e-06
0.0216796
0.00271659
0.00031983
3.58112e-05
3.45397e-06
0.0191666
0.00233422
0.000270267
3.02637e-05
2.93276e-06
0.0143187
0.00204326
0.000253774
2.95148e-05
2.91944e-06
0.017676
0.00210913
0.000246995
2.79615e-05
2.72956e-06
0.0136065
0.00194573
0.000241322
2.8071e-05
2.77821e-06
0.019418
0.00244646
0.000289484
3.26679e-05
3.17287e-06
0.0147469
0.00211746
0.000265991
3.1135e-05
3.08976e-06
0.0208633
0.00257503
0.000305151
3.45943e-05
3.37286e-06
0.0155329
0.00221106
0.000277545
3.2551e-05
3.2377e-06
0.0108827
0.00144275
0.000177922
2.08063e-05
2.07425e-06
0.00795677
0.00123668
0.00016089
1.93452e-05
1.95867e-06
0.0116611
0.00156823
0.000193271
2.24983e-05
2.23234e-06
0.00856618
0.0013365
0.00017326
2.07269e-05
2.08875e-06
0.013089
0.00175829
0.000214078
2.47223e-05
2.44041e-06
0.00976744
0.00152305
0.000194705
2.30194e-05
2.30063e-06
0.0130007
0.00182341
0.000225119
2.61568e-05
2.58888e-06
0.0107638
0.0017095
0.000215605
2.52581e-05
2.51007e-06
0.0123085
0.00185019
0.000231313
2.69839e-05
2.6749e-06
28395.8
31401.4
29021.2
31209.4
29828.8
30834.5
29926.2
30358.3
29372.8
30132.2
29880.1
28346.5
29166.3
28284.9
30375.5
28560.3
31260.8
28617.8
33785.4
4563.79
1230.42
851.708
406.171
26641.3
8082.98
3404.05
2493.4
1146.42
33861.2
4523.99
1216.37
840.911
400.464
26570.5
8041.42
3384.01
2495.02
1157.25
33799.9
4519.86
1218.68
843.809
401.783
26410
8031.75
3391.1
2503.86
1162.63
33774.1
4489.81
1210.81
839.187
399.343
26188.4
8026.97
3414.25
2529.49
1174.31
33880.9
4397.04
1175.5
809.241
383.342
26131.1
7962.78
3375.26
2494.65
1155.49
33734.2
4484.91
1220.1
805.112
365.1
25779.2
7829.11
3326.6
2453.24
1135.55
33773.3
4425.94
1192.81
802.877
372.094
25885.1
7863.71
3320.67
2443.34
1130.06
33737.9
4525.27
1235.33
803.998
359.316
25805.8
7824.5
3332.54
2459.49
1140.41
33814.2
4515.19
1232.29
797.017
353.407
25773.1
7841.41
3342.64
2468.78
1149.58
37514.1
71943
68921.1
34059.6
11622.4
14008
18572.6
23394.2
20023.3
28616
38718.1
70765.9
53334
89685.2
31052.9
43640
20325.2
26156.8
9509.99
12121.4
304.254
103.667
0.217048
0.0304418
0.0159254
0.010244
0.0553804
228.817
102.005
37.6993
27.1366
7.14375
2.6427
8.74002
1.78754
0.750948
0.810305
0.323043
223.268
29.8935
2.6447
2.03758
8.05735
4.06699
1.38561
0.560028
0.120058
0.0808728
0.632625
0.488008
267.263
68.3976
101.244
20.7964
8.40234
33.9133
1.25965
0.19287
1.97543
457.702
228.733
108.447
45.2777
26.4499
165.771
93.6733
45.4951
19.3005
8.86796
0.412208
0.316246
0.181746
0.0883886
0.0457804
0.0598583
0.0487614
0.0295142
0.0150584
0.00816427
0.0316034
0.026152
0.0160515
0.00829884
0.00456231
0.0206107
0.0174484
0.0109231
0.00574919
0.003211
0.108723
0.088153
0.0529456
0.0267723
0.0143919
344.794
172.032
78.1305
30.9325
18.5795
151.048
68.3437
27.1382
10.1036
4.88996
60.7972
34.4128
16.0292
6.47808
2.88894
39.428
17.6676
6.7157
2.37843
0.990796
9.76152
4.34205
1.63731
0.558465
0.217391
4.58288
2.96217
1.46934
0.627995
0.292094
14.4156
8.43744
3.90162
1.57509
0.701141
2.98848
1.79007
0.83178
0.336172
0.149344
1.349
0.930798
0.484419
0.215403
0.103518
1.42621
0.944949
0.473877
0.203969
0.0954335
0.591416
0.421788
0.224637
0.101716
0.0496564
343.338
180.891
85.5171
35.1083
21.0483
49.5627
29.8793
14.7058
6.24708
2.88338
4.69778
3.19223
1.66095
0.739565
0.354654
3.66254
2.54732
1.35303
0.613646
0.298759
13.9277
9.04601
4.61166
2.02101
0.955502
7.2994
5.07124
2.70044
1.22728
0.596643
2.54687
1.84667
1.0158
0.47502
0.236914
1.05258
0.791303
0.445329
0.212218
0.107903
0.227927
0.174209
0.0991823
0.0477343
0.0245551
0.155309
0.121266
0.0704974
0.0346173
0.0181358
1.15906
0.83202
0.450184
0.207161
0.102284
0.906945
0.668585
0.370436
0.174181
0.0876223
406.926
209.393
99.6526
41.4823
24.3341
110.923
64.2643
31.3908
13.4001
6.18103
166.946
98.7191
48.257
20.5246
10.0532
35.6394
22.9078
11.7423
5.17143
2.43832
14.8567
10.0747
5.30378
2.38745
1.14771
57.2616
35.8711
18.1595
7.86755
3.64853
2.318
1.68226
0.924
0.431391
0.215052
0.367695
0.283419
0.162905
0.0791351
0.0409847
3.58978
2.54668
1.37358
0.631084
0.310196
23349.6
18276.8
22755.6
19784.2
27112.9
56719.8
30946.7
57744.9
21058.8
18426.8
21157.7
21231.9
19494.4
13946.5
37879.7
21218.2
22742.8
31019.4
11469.6
14111.9
23454
29973.6
12542.5
14100.3
37051.4
33150.3
29639
20538.1
35618.3
23676.6
13197.1
17045.2
19825
20791.4
61109.3
64468.9
29875.9
33497.7
35159
27884.7
27823.5
14824.1
14272.6
14968.5
43604.7
55802.7
18668.2
23711
45652.2
62587.1
22819.1
30046.2
38399.8
70806.2
23152.8
47446.8
6770.99
26677.4
4681.26
18596.8
14823.1
13864.9
15317.8
14937
10453.9
8236.77
13471
8990.65
21742.4
27672.8
25148.8
25681.2
15072
15455.3
15008.6
15520.1
15811.8
9373.51
16563.5
9366.7
18017
28563.8
16311.1
28741.9
45906.3
75355.4
52774.7
108419
47981
86916.9
50985.2
118222
43290.8
65566
53459.7
103976
42425.9
60289
54144.9
103194
57133.3
56221.6
83458.5
120805
53677.5
49195.6
88006
120875
46477.4
40165.6
92569.7
117636
13203.6
7951.57
24252.3
45869.6
102636
6998.39
10532.8
22481.8
36220.5
115829
7015.34
12197.2
22346.6
45097.4
132674
12021
4776.43
9788.57
16582.7
14159.8
6234.07
10358.2
16634.8
16018.9
7075.61
11380.9
16760.2
4745.55
2579.02
7600.49
4227.05
15426
8063.19
18719.9
9053.45
11886.3
17685.6
5032.75
2907.4
9026.01
5419.62
15458.5
8647.78
21662.8
11378.2
11241.5
16890.9
9965.93
7321.82
9545.99
7291.79
5654.78
3782.13
5483.19
3845.18
15595.5
10627.1
16603.9
10947.4
8969.19
7158.98
8835.67
7104.51
5197.59
3914.69
5145.84
3912.58
14550.8
10023.4
14259.9
9808.75
20146.8
13015.8
10086
15000.3
21583.7
13499
10311.8
15225.8
19121.6
12263.4
10231.2
14914.5
18519.8
11819.4
10629.8
14649.9
2645.24
2228.07
1822
1106.99
3492.26
2217.1
2213.61
1418.98
3352.2
1671.93
2692.56
1511.69
1258.86
529.492
2077.43
937.553
3435.98
1440.17
4077.21
1657.32
3859.29
1472.83
1397.4
515.997
2576.23
933.161
3729.5
1245.62
4290.36
1354.16
3355.62
731.552
13272.6
9024.21
24806.1
15120.5
19949.4
12334.3
42363.8
21135
10046.8
4975.68
14126.8
6558.43
9385.34
5146.52
14061.1
6972.18
11776.8
7145.45
9087.84
5866.1
6174.84
9178.33
20924.7
24042.3
29925.2
34161.3
14296.1
17194.6
11953.7
13452.4
10982.5
12890
2214.44
758.776
2811.79
914.978
2433.77
750.492
3055.26
900.554
2718.89
750.581
3685.31
1043.05
4209.55
1245.15
4944.69
1292.96
5648.58
3695.44
8535.16
4318.21
8363.96
5899.48
12278.1
6870.1
6270.83
2398.23
4384.34
2065.88
10910
4702.54
12104.2
4749.45
15711.5
7473.53
16866.9
7515.3
7678.77
2609.98
8492.06
2647.63
2323.6
665.029
1096.21
346.099
1655.31
498.031
950.202
297.017
2851.3
812.726
1190.01
373.689
3103.39
900.96
1203.84
374.29
1480.81
924.658
493.678
270.415
1586.95
1017.68
469.489
269.034
1672.66
1051.17
455.798
291.289
3314.41
5226.46
2655.27
1058.23
342.625
4174.88
3063.17
2394.22
903.966
273.579
4798.66
2928.1
1668.79
778.063
239.843
457.069
167.967
126.033
48.7893
515.676
199.157
136.156
56.3078
536.224
213.316
156.488
67.5255
2777.02
1390.5
1776.48
810.97
1136.77
505.78
498.594
217.629
149.757
66.7291
2791.05
1298.07
1604.1
636.84
867.001
321.148
395.474
141.126
134.591
54.028
1591
532.856
1695.64
553.373
2861.32
1224.22
2980.26
1304.97
891.071
255.065
814.644
244.83
1790.65
573.417
1794.1
574.825
3036.2
1390.39
3016.82
1389.04
967.225
264.383
974.796
266.73
396.273
102.401
136.717
43.0857
361.674
99.7948
128.441
41.674
437.425
106.607
145.072
44.3551
451.742
109.196
158.538
46.4076
60.2754
28.3197
25.1578
12.3118
77.4529
34.5082
27.464
12.635
83.2988
35.0718
30.377
12.2928
617.772
246.258
329.262
120.865
203.174
76.9829
83.1823
28.6877
27.9886
8.8405
525.913
178.221
216.968
68.3572
99.6203
31.3604
41.8296
12.0739
20.7922
4.79081
125.722
15.5153
1.80776
0.187303
151.841
18.7068
2.17144
0.217985
123.637
15.2713
1.77452
0.183385
153.787
19.4993
2.32981
0.24026
122.419
14.4145
1.78375
0.203392
169.628
20.242
2.58283
0.296556
208.241
23.8539
2.6313
0.25365
218.081
24.8612
2.57196
0.236004
108.029
13.8132
1.80739
0.215377
56.0178
7.27129
0.980575
0.131439
82.7455
10.743
1.4699
0.196668
49.1715
6.54752
0.901477
0.126356
130.28
16.4751
2.02041
0.217443
60.5574
7.83921
1.02009
0.130832
142.383
17.9305
2.12181
0.222721
61.7785
8.11659
1.04659
0.134414
84.981
10.8079
1.32461
0.152019
48.0088
6.30826
0.818714
0.106488
81.6308
10.4089
1.28345
0.150342
48.1102
6.29662
0.811963
0.106506
80.268
9.86762
1.24997
0.153708
52.6966
6.52797
0.828134
0.10805
58.2118
7.52667
1.00875
0.136251
46.723
5.96138
0.798229
0.108911
41.5374
5.73471
0.796174
0.116328
23.9514
3.46837
0.408807
0.0455711
10.6872
2.13974
0.263002
0.0285373
25.6222
3.65471
0.431656
0.0490005
11.7402
2.27698
0.277213
0.0299488
29.7413
3.93801
0.450028
0.0497517
13.9752
2.45559
0.288779
0.0307233
27.2028
3.80384
0.462664
0.0530086
13.144
2.38635
0.287987
0.0312125
23.8701
3.53124
0.470953
0.057861
10.4722
2.16057
0.273435
0.0305031
23.1982
3.52657
0.45091
0.0540282
8.87749
2.00924
0.266381
0.0302144
22.457
3.43566
0.450005
0.0545364
8.72714
2.00803
0.263128
0.029817
24.0362
3.62723
0.440707
0.0508206
9.04264
2.07252
0.269721
0.0302711
26.3396
3.78459
0.448708
0.0512808
9.46631
2.15551
0.277162
0.0308645
0.0183796
0.00234234
0.00028112
3.211e-05
3.14788e-06
0.0203986
0.00253822
0.000299651
3.3767e-05
3.27879e-06
0.0184032
0.0024368
0.000292626
3.32781e-05
3.24996e-06
0.0222475
0.00272617
0.000316373
3.52704e-05
3.40378e-06
0.0203701
0.00255952
0.000300725
3.39896e-05
3.31469e-06
0.0264319
0.00287751
0.000325641
3.61026e-05
3.47948e-06
0.0232109
0.00286752
0.000334039
3.72399e-05
3.58879e-06
0.0223668
0.00281244
0.000331957
3.72452e-05
3.59787e-06
0.0215956
0.00266768
0.000311623
3.51322e-05
3.42107e-06
0.0156215
0.00226463
0.000283951
3.32602e-05
3.30659e-06
0.0207587
0.0025045
0.000295921
3.37238e-05
3.30739e-06
0.0154194
0.00223151
0.0002794
3.27291e-05
3.25543e-06
0.0207987
0.00264939
0.000315719
3.58256e-05
3.49368e-06
0.0154812
0.00224908
0.000284624
3.35088e-05
3.33924e-06
0.0213124
0.00263967
0.000313653
3.56344e-05
3.4797e-06
0.0157688
0.00225344
0.000283621
3.33362e-05
3.32118e-06
0.0161036
0.00210701
0.000258394
3.00721e-05
2.98746e-06
0.0129454
0.00189705
0.000241499
2.86663e-05
2.87988e-06
0.0162592
0.00216083
0.000265883
3.09203e-05
3.06624e-06
0.0131069
0.00194145
0.000247701
2.9386e-05
2.94786e-06
0.0169202
0.00225427
0.000275362
3.18957e-05
3.15582e-06
0.0135343
0.0020377
0.000258917
3.05606e-05
3.05377e-06
0.015838
0.00221449
0.000274993
3.2111e-05
3.19017e-06
0.0136551
0.00212315
0.000268455
3.15593e-05
3.14554e-06
0.0144983
0.00218106
0.000274833
3.22574e-05
3.21199e-06
31033.1
32649.7
31139.9
32275
31319.6
31666
30706
30887.2
29708.7
30356
29930.1
28382.1
29297.8
28386.9
30393.4
28571.3
31265.2
28620.3
34319.6
4601.31
1233.17
851.936
406.175
27032.4
8133.37
3409.34
2494.23
1146.53
34308.1
4555.74
1218.69
841.018
400.43
26903.1
8084.61
3388.27
2495.28
1157.2
34114.2
4542.62
1220.27
843.718
401.682
26656
8064.31
3394.04
2503.4
1162.25
33950.6
4503.07
1211.72
839.038
399.247
26345
8047.95
3415.98
2528.84
1173.93
33959.4
4402.92
1175.84
809.091
383.274
26208.5
7973.84
3375.98
2494.12
1155.34
33744.9
4485.66
1220.09
805.076
365.099
25790.9
7830.58
3326.53
2453.1
1135.52
33802.7
4428.12
1192.88
802.766
372.047
25918.9
7868.3
3320.73
2442.8
1129.87
33741.6
4525.55
1235.32
803.992
359.328
25809.2
7824.92
3332.43
2459.48
1140.48
33815.2
4515.2
1232.26
797.002
353.405
25773.9
7841.56
3342.59
2468.76
1149.59
37300.2
71769.8
68048.8
33304.9
18950.4
29958.2
16908.2
29488.9
27280.5
64734.5
31666.6
67507.7
4.74898e-06
1.85193e-05
8.66583e-05
0.000417518
0.00209128
0.0109078
1.58102e-05
5.80133e-05
0.000249665
0.00106257
0.00441037
0.0177234
1.55155e-06
6.30261e-07
7.25566e-06
3.53387e-06
3.95811e-05
2.20306e-05
0.000212635
0.000131437
0.00112592
0.000708311
0.00578942
0.00289826
0.0579729
0.291567
1.33058
5.50064
17.2131
28.3531
0.0682261
0.245576
0.806361
2.31329
5.21929
7.7688
1.00276e-05
9.31507e-06
6.50463e-06
3.8626e-06
2.42696e-06
3.87125e-05
3.52903e-05
2.41075e-05
1.3968e-05
8.56978e-06
0.000179284
0.000160329
0.000107167
6.06325e-05
3.63515e-05
0.000853609
0.000746941
0.000487505
0.000268886
0.000157284
0.00421581
0.0035959
0.00228434
0.00122501
0.000697342
0.0216216
0.0178926
0.011024
0.00573202
0.00316702
3.31119e-05
3.02902e-05
2.07742e-05
1.20891e-05
7.44817e-06
0.000120266
0.000107945
7.24361e-05
4.11502e-05
2.47661e-05
0.000512408
0.00045146
0.000296742
0.000164845
9.70773e-05
0.00215742
0.00186365
0.00119907
0.000651246
0.000375219
0.00884868
0.00748013
0.00470487
0.00249639
0.00140619
0.035088
0.0289579
0.0177793
0.00920805
0.00506712
3.29611e-06
3.09738e-06
2.19302e-06
1.32316e-06
8.44353e-07
1.34738e-06
1.28158e-06
9.20855e-07
5.65015e-07
3.66593e-07
1.52454e-05
1.40328e-05
9.69599e-06
5.69161e-06
3.53723e-06
7.47178e-06
6.95853e-06
4.8745e-06
2.90571e-06
1.83292e-06
8.22571e-05
7.41818e-05
5.00691e-05
2.86399e-05
1.73591e-05
4.61066e-05
4.21156e-05
2.88315e-05
1.67464e-05
1.03011e-05
0.000436819
0.000385629
0.000254162
0.000141681
8.37508e-05
0.000272289
0.000243985
0.000163325
9.25224e-05
5.55408e-05
0.00228446
0.00197103
0.00126676
0.000687402
0.00039582
0.00145281
0.00127731
0.000836317
0.000462247
0.000270842
0.0115831
0.0097389
0.0060882
0.00320937
0.00179634
0.00589389
0.00509573
0.00327012
0.00176755
0.00101305
0.112636
0.0899517
0.0535741
0.0269512
0.0144238
0.553435
0.424247
0.243728
0.118555
0.0614322
2.4588
1.79884
0.995698
0.468566
0.235267
9.8424
6.80847
3.62435
1.65012
0.803346
29.554
18.9908
9.67968
4.27332
2.02865
47.981
30.0584
15.141
6.62391
3.12147
0.133045
0.106882
0.0639459
0.0322972
0.0173499
0.470693
0.366779
0.213465
0.10507
0.0550741
1.51525
1.14048
0.644674
0.30915
0.15812
4.24984
3.07521
1.68661
0.788436
0.393912
9.36118
6.49638
3.46292
1.58371
0.776333
13.7846
9.39006
4.94869
2.24327
1.09129
4.73548e-06
1.84365e-05
8.62416e-05
0.000415358
0.0020793
0.0108396
1.57664e-05
5.77616e-05
0.000248533
0.00105768
0.00438935
0.017637
1.54691e-06
6.28822e-07
7.22225e-06
3.52748e-06
3.93803e-05
2.20525e-05
0.000211481
0.000132414
0.00111806
0.000719012
0.00573843
0.0030367
0.057583
0.289582
1.32148
5.46599
17.1415
28.3174
0.0678891
0.244369
0.802545
2.30366
5.20417
7.76151
9.99933e-06
9.28973e-06
6.48869e-06
3.85515e-06
2.42409e-06
3.85413e-05
3.51404e-05
2.40156e-05
1.39271e-05
8.55525e-06
0.000178435
0.000159607
0.000106743
6.04578e-05
3.6301e-05
0.000849286
0.000743397
0.00048553
0.000268152
0.000157142
0.00419234
0.00357746
0.00227468
0.00122185
0.000697125
0.0214912
0.017795
0.0109764
0.00571892
0.00316869
3.30206e-05
3.02094e-05
2.07237e-05
1.20659e-05
7.43909e-06
0.000119747
0.000107491
7.21585e-05
4.10266e-05
2.47211e-05
0.000510095
0.00044948
0.000295565
0.000164345
9.69152e-05
0.00214755
0.00185539
0.00119431
0.000649338
0.000374696
0.0088067
0.00744583
0.00468573
0.0024891
0.00140451
0.0349176
0.0288221
0.0177059
0.00918166
0.00506234
3.28641e-06
3.08875e-06
2.18752e-06
1.32073e-06
8.43542e-07
1.34456e-06
1.279e-06
9.19295e-07
5.64622e-07
3.66593e-07
1.51769e-05
1.39741e-05
9.66128e-06
5.67729e-06
3.53355e-06
7.45927e-06
6.9496e-06
4.87191e-06
2.90785e-06
1.83722e-06
8.18547e-05
7.38529e-05
4.9889e-05
2.85779e-05
1.7354e-05
4.61626e-05
4.21918e-05
2.89156e-05
1.6825e-05
1.03723e-05
0.000434573
0.000383905
0.000253317
0.000141477
8.38322e-05
0.000274399
0.000246085
0.000164987
9.36903e-05
5.64082e-05
0.00226965
0.00196043
0.00126215
0.000686746
0.00039678
0.00147543
0.00129889
0.000852466
0.000472861
0.000278239
0.0114919
0.00968106
0.00606835
0.00321135
0.00180613
0.00617914
0.00535214
0.00344643
0.00187217
0.00107919
0.111905
0.0894278
0.0533335
0.0268949
0.0144421
0.549771
0.421704
0.242611
0.118323
0.0615433
2.44224
1.78758
0.990775
0.467487
0.235661
9.77954
6.76533
3.60445
1.64473
0.803738
29.4198
18.8911
9.62753
4.25453
2.02465
47.9131
30.0063
15.1125
6.61297
3.11853
0.132388
0.106371
0.0636783
0.0322059
0.0173374
0.468371
0.36501
0.212559
0.104771
0.0550406
1.50798
1.13503
0.641903
0.308236
0.15801
4.23155
3.0615
1.67956
0.786018
0.393519
9.33211
6.47394
3.45081
1.57913
0.775205
13.7705
9.37885
4.94246
2.24081
1.0906
303.715
103.509
0.214841
0.0301084
0.0182501
0.0106198
0.054655
220.157
100.824
36.8932
27.2685
2.64968
8.47811
0.812011
1.1488
0.411771
217.552
29.2784
2.61716
2.00883
7.91337
4.01348
1.37109
0.553521
0.14155
0.0870889
0.636771
0.482455
265.427
68.022
99.685
20.6033
8.30558
33.384
1.24477
0.189671
1.94965
456.711
228.007
108.076
45.1517
26.4349
165.478
93.4554
45.3781
19.2575
8.85793
0.40838
0.314004
0.181111
0.0885563
0.0461809
0.0592594
0.0483791
0.02938
0.0150621
0.00821442
0.0362833
0.0301544
0.0186301
0.00971686
0.00539389
0.02141
0.0182039
0.0114655
0.00608236
0.0034267
0.107511
0.0875439
0.0528916
0.0269548
0.0146207
338.337
178.765
85.3017
35.3223
21.6313
155.987
80.4539
36.7833
15.2791
7.46408
60.5675
35.9434
17.6768
7.52091
3.47611
42.9269
22.8002
10.3989
4.32204
1.92079
4.67348
3.14394
1.63644
0.734121
0.35484
14.3133
8.88826
4.41125
1.90777
0.890062
1.48363
1.06176
0.575997
0.267175
0.133171
2.08805
1.47778
0.792027
0.36313
0.178984
0.76821
0.569768
0.317118
0.1502
0.0763004
336.054
179.498
86.3067
36.1767
22.0755
48.8144
29.8665
14.9802
6.50412
3.06885
4.68088
3.23286
1.71759
0.783096
0.384316
3.62586
2.54687
1.37098
0.631981
0.313093
13.7417
9.02879
4.67436
2.08675
1.00613
7.21814
5.04048
2.70424
1.24139
0.610687
2.52231
1.83299
1.01213
0.476081
0.239251
1.0427
0.787989
0.44679
0.215017
0.110564
0.270548
0.209759
0.121565
0.0597191
0.0313696
0.168026
0.13248
0.0779659
0.0388512
0.0206746
1.17499
0.856876
0.472873
0.222577
0.112429
0.900243
0.669726
0.375622
0.179287
0.0916649
403.682
207.185
98.6063
41.1695
24.3558
110.242
63.7855
31.1498
13.3188
6.16805
164.543
97.6356
48.0188
20.6174
10.2432
35.3122
22.7132
11.6677
5.16092
2.44981
14.6977
9.99064
5.28176
2.39323
1.16063
56.4685
35.5571
18.1469
7.95137
3.73937
2.2945
1.6721
0.924086
0.435081
0.219086
0.362533
0.281056
0.162833
0.0799138
0.0418695
3.55193
2.53534
1.37946
0.641013
0.319186
0.347658
0.723143
1.62022
3.12745
4.65651
2.64009
19795.8
18904.1
17627.2
20340.7
15028.6
13262.7
13704.9
10150.6
21651.6
44321.3
20510.3
40847.3
23328.9
15439.5
43677.7
16077.3
15147.2
13695.9
15617.8
11624.5
10248.8
10828
8241.97
19939.2
48523.4
18410.7
42839.8
20759.8
19632.3
41905.4
11496.5
10616.5
8678.2
9740.46
8184.98
7513.63
7023.42
5624.4
18848.2
30480.3
17992.1
27589.9
18021.6
18382.5
27146.1
6844.33
6244.87
4505.53
5006.32
4859
4470.38
3636.64
2959.39
11022.2
17118.6
10443.4
14642.8
9986.92
10146.9
13838.7
3446.26
3088.93
2121.96
2349.09
2600.24
2455.6
1714.14
1449.11
5926.17
8081.26
5584.88
6387.86
4873.84
4208.8
5774.17
1653.28
1469.98
878.193
975.343
1223.44
1105.04
725.646
616.93
3001.59
3246.8
2720.61
2513.88
2202.91
1472.05
2291.78
12360.5
10458.7
15740.9
18828.8
8259.33
6254.76
11480.3
8056.87
7071.37
2746.49
6434.62
2739.7
4584.04
3648.49
3336.56
9211.59
7871.95
11457.9
13511.8
6335.54
4932.41
8596.63
6122.33
4672.95
1783.12
4269.84
1774.9
2877.14
2139.21
1886.2
5172.42
4484.36
6365.3
7336.2
3673.31
2859.17
4985.11
3661.8
2558.04
938.997
2203.89
856.568
1460.44
861.925
940.671
2216.72
1946.34
2897.09
3278.9
1605.57
1222.88
2365.62
1750.4
1040.25
375.312
890.966
340.558
584.185
336.392
372.121
881.182
782.914
1243.11
1389.25
619.858
449.544
1051.19
781.499
388.003
170.247
326.103
145.531
235.148
165.484
157.222
303.666
271.574
482.083
535.123
220.848
176.356
410.644
323.809
132.214
69.0076
112.3
64.1512
91.0385
87.009
76.1314
18924.6
10328.2
27171.3
19472.1
28754.6
23713.3
38960.6
62950.3
54543.7
83455.3
37929.9
38007.4
23813.5
22302
13058
8996.41
22645.5
18127.2
21484.5
21043.5
26875
17498.6
41126.9
22963.5
14887.5
16130.2
8358.14
9444.28
14593.7
18166.2
9145.26
11428.1
35538
31080
27834.9
17117
25134.2
20577.7
13412.4
17057.3
19793.6
20771.7
61629.4
64525.2
30435.6
33609.5
34402
27731.2
26858
14652.8
13330
14761.4
26755
42600.9
13534.3
19084.7
32155
52645.7
19254.7
26948.8
28997.9
63949.1
20277.2
44368.5
6155.99
25731.8
4570.53
18434.1
12791.5
13734.5
14858.9
14866.7
11187.2
8569.7
14037.6
9140.3
19914.3
27387.6
19685.4
25106.6
14962.4
15426.4
14990
15512.3
16047.5
9430.39
16617.4
9379.64
17447.4
28448.9
16198.6
28713.8
44722.9
73906.5
52348.8
107980
45775.4
84103.4
50078.7
117158
42817.7
64971.9
53291.6
103804
42315.3
60146.2
54105.9
103151
23511.9
28020.5
61039.9
97930.3
26363.4
27428.2
72460.2
105246
28201.9
25649.8
83345
108600
17799.4
9788.76
27662.5
45153.8
98966.2
8697.82
15797
25464
36058.9
111470
8122.82
13649.4
22998.6
44154.3
130651
3525.98
2424.56
1455.45
13108.1
5370.27
3301.15
4387.48
14002.9
7536.46
3357.4
7701.76
15097
5926.59
3346.16
10707.6
6003.53
16982.9
8788.11
18372.2
8809.51
10238.6
16857.2
5746
3299.43
10218.7
6042.56
16148.8
8984.01
21144.3
11060.5
10545.2
16620
10226.4
7532.39
9598.43
7347.35
5953.72
3951.06
5594.9
3909.51
15549.8
10623.3
16634.1
11018.7
8981.72
7172.33
8837.58
7106.83
5235.8
3936.01
5154.44
3917.18
14527.7
10016.6
14254.1
9806.77
20019.4
12958.4
9969.24
14935.4
21316.9
13371.6
10005.2
15044.3
19073
12242
10189.5
14893.3
18507.9
11814.5
10619.3
14645.1
1034.03
273.298
67.4464
511.329
115.965
36.7858
1574.98
285.427
73.8622
956.869
296.995
51.815
1318.02
289.403
83.0145
1693.02
429.34
97.4844
1287.72
345.697
84.4512
2210.57
588.235
143.387
2758.27
703.11
170.239
2938.99
729.645
169.258
2634.45
513.472
96.4076
1413.56
390.648
90.0811
2531.6
662.451
145.058
3395.12
797.539
158.977
3552.02
778.805
149.597
2770.84
514.777
80.3226
18342.9
12991.2
26415
16782.4
27779.1
16837.1
45656.9
23119.3
8563.2
5018.4
9554.22
5257.23
10634
6156.67
12308.4
6504.62
12361.4
9600.35
10339.7
8613.53
8249.96
9477.98
21606.5
24219.5
30695.7
34343.5
14663.5
17313.3
12446.1
13562.1
11183.2
12967.9
2350.65
667.82
2434.9
783.568
2859.82
715.978
2882.71
822.314
3412.33
778.453
3706.4
1025.02
4239.39
1234.37
4961.77
1290.16
7473.82
4242.09
9312.42
4577.01
10484
6716.96
13307.4
7230.35
6779.58
2530.07
5746.55
2315.52
11236.7
4808.39
12186.7
4775.45
16117.4
7612.61
16962.7
7548.25
7891.04
2667
8547.34
2661.98
2480.63
676.017
1139.07
352.643
1905.48
501.389
1018.72
301.259
2922.46
818.791
1209.82
377.257
3121.91
902.708
1208.9
375.208
149.558
37.8232
190.415
51.9736
158.4
45.7126
205.924
64.6068
202.516
79.5724
241.931
97.3991
1904.47
4447.64
1075.33
730.066
264.124
3456.01
1503.58
561.526
445.017
159.361
4625.67
2589.46
1425.24
666.34
208.895
7.30124
1.06639
13.1214
4.06822
9.36388
1.36147
17.9155
5.69928
20.7921
3.73436
31.3918
10.2058
2323.32
1248.11
847.896
384.534
304.859
121.035
185.546
56.7547
66.8782
21.9711
2628.67
1266.59
1239.75
474.368
604.139
196.408
272.179
81.5882
100.007
35.19
1642.37
511.822
1764.95
564.908
3011.25
1255.48
3085.83
1335.26
922.56
257.749
816.795
221.21
1824.26
581.734
1802.83
577.134
3080.29
1404.94
3027.58
1392.57
985.199
268.143
979.714
267.886
405.334
101.867
137.485
42.1772
352.254
86.3909
122.095
35.8839
443.926
107.643
146.236
44.3834
453.656
109.573
158.968
46.4658
0.162534
0.0439077
0.0109557
1.69956
0.152344
0.0302298
-0.0629014
0.0673717
0.0195351
2.1307
0.21069
0.0508667
0.497735
0.276223
0.0853362
3.23747
0.402896
0.105193
462.776
128.105
32.8508
133.709
38.2386
10.3175
38.2204
10.8057
3.09371
13.1302
3.26078
0.900247
5.94536
0.871332
0.216391
480.008
127.989
28.4128
147.154
35.478
7.67878
48.8923
10.133
2.15762
18.2251
3.3477
0.662597
10.8429
1.25361
0.217933
98.047
11.4616
1.30372
0.134671
124.143
14.7254
1.66461
0.164521
103.53
12.0263
1.36047
0.140512
134.376
16.4892
1.92141
0.195265
111.648
12.2258
1.46576
0.166456
158.725
18.2882
2.27562
0.257031
201.788
22.6468
2.45642
0.233323
216.04
24.4608
2.51613
0.229685
105.295
13.0519
1.66739
0.194633
55.6061
7.05876
0.932635
0.12268
77.3953
9.60243
1.27727
0.168633
47.4835
6.09384
0.818178
0.112957
128.764
16.0187
1.93772
0.205745
60.4351
7.73723
0.995445
0.126141
141.881
17.7734
2.09398