/*--------------------------------*- C++ -*----------------------------------*\
  =========                 |
  \\      /  F ield         | OpenFOAM: The Open Source CFD Toolbox
   \\    /   O peration     | Website:  https://openfoam.org
    \\  /    A nd           | Version:  11
     \\/     M anipulation  |
\*---------------------------------------------------------------------------*/
FoamFile
{
    format      ascii;
    class       volScalarField;
    location    "0.1";
    object      gradTz;
}
// * * * * * * * * * * * * * * * * * * * * * * * * * * * * * * * * * * * * * //

dimensions      [0 -1 0 1 0 0 0];

internalField   nonuniform List<scalar> 
5712
(
24985.4
77272.2
20745.4
74210.5
15553
69402
18351.6
87324.3
20733.9
115834
23220.8
96979.7
24892.8
89178.6
26626.7
86129.6
15457.5
8530.31
38670.5
21340.9
13485.6
5889.35
35713.2
15893.8
22039.4
18581.5
66965
55344.7
17104.6
14868
60751.9
51685.6
33871.2
15341.4
26009.1
11488.4
15814.9
34064.4
87109.2
23108.5
32026.1
10902.4
95330.6
25647
25709.1
8931.35
73068.3
22562.3
35602.1
13191.6
73057.7
22507.7
26924.7
13360.3
42106.3
16961.5
27051.1
14700.1
38345.7
15322.5
28350.6
17596.9
28641.3
13264.2
43663.1
17162.1
15197.3
5898.54
19082.2
10869.6
14544.1
7644.68
13997.7
8710.98
10301.9
5437.14
18123.4
10509.9
22371.9
13681
10401.5
5590.52
5093.91
3500.59
7335.86
4064.25
3494.77
2654.79
13041.4
7189.2
6692.2
3907.73
20083.5
12944.5
15693.9
25570.3
24591.8
22349.3
21432.8
41681.6
14139.5
7715.6
9588.55
14919.9
7180.53
3521.59
4261.76
5482.56
29580
49199.4
21114
62406.8
31794.9
44211.6
24947.9
63266.4
31448.1
34757.2
30385.4
58932.1
16030
11979.1
18312.2
23362.3
34576.9
8714.12
14169.1
22010.3
33617.2
72097.3
8304.26
10365.9
13785.9
23940.8
54393.5
48121.9
27270.2
60307
32634.2
40597.8
24076.2
58240.6
31747.9
30067.9
19478.2
52038.9
30038.6
4786.36
2100.61
8697.92
4877.82
15202.8
9718.25
24450.6
16469.5
47190.8
28575.6
4498.16
2357.12
7675.16
5127.03
13055.3
9602.02
22976.2
16556.8
42558.3
26736.8
7292.62
3211.68
4726.82
2781.47
5265.87
2841.07
3381.11
2320.6
7202.93
4388.47
10844.3
5178.77
1980.31
1739.11
649.911
519.708
1740.8
1469.44
518.294
444.718
2776.55
2640.57
887.245
781.173
11530.1
5834.71
19310
6891.43
17882.7
8249.62
30170.1
11588.8
5207.82
3249.98
10391.5
3559.72
3167.82
1907.38
4876.47
2208.36
12432.6
4063.77
855.074
14513
4613.42
980.255
11508.8
3848.64
848.794
13963
4444.63
925.074
9266.17
2996.69
622.655
13089.8
4112.63
834.718
845.949
290.179
61.6356
2288.74
805.394
170.302
4861.07
1661.12
343.133
8179.63
2678.09
539.712
12715.5
3994.55
795.325
1092.58
373.206
84.419
2656.74
1040.99
240.96
5040.06
1918.41
423.482
8505.25
3050.31
640.368
12757.7
4176.03
843.345
1659.8
1955.96
5094.33
4452.37
5725.55
3608.19
12217.4
8353.84
525.903
246.015
564.497
263.025
577.052
469.675
833.216
653.009
2566.07
1163.14
2642.75
1291.61
875.005
1806.28
4871.44
1335.83
11307.4
3397.78
-733.589
470.47
1772.79
961.963
819.834
478.663
909.004
166.671
245.272
60.7892
1061.18
191.706
417.923
95.4502
1281.13
233.162
865.216
190.191
849.163
169.772
269.061
49.5622
5001.79
3088.88
3219.86
1824.44
8829.98
5877.02
6023.12
3414.28
1566.74
868.787
2586.73
1391.09
2255.11
1300.45
1057.38
866.478
4232.42
2479.23
2052.9
1643.22
1060.51
616.27
444.634
422.92
589.404
113.121
346.88
70.8972
803.929
137.822
504.713
99.062
361.014
79.0827
233.628
44.2556
98.2004
22.9717
151.249
21.5319
856.919
253.284
163.046
76.6869
965.162
307.678
175.128
82.7359
1258.74
450.713
207.988
102.457
4496.86
7821.76
2416.12
759.162
125.69
5271.16
2988.54
1573.4
636.289
122.039
5611.18
3016.18
1346.14
491.492
88.8272
71.7988
17.7734
28.894
9.94926
100.399
23.8377
35.5074
12.4078
174.127
45.2544
51.597
18.8167
2778.49
921.486
1552.46
454.433
650.791
203.044
290.346
91.563
64.7588
26.433
2410.3
1025.8
1285.89
492.435
601.363
223.7
237.934
91.6486
48.4043
24.625
1387.27
449.28
879.013
293.995
2918.05
1062.65
1889.42
761.37
383.343
126.913
584.39
189.93
701.897
218.516
196.67
61.5137
1250.88
491.748
351.238
142.073
334.207
97.7954
94.5363
27.7654
126.025
49.2966
23.0485
14.5096
195.116
68.574
31.8204
17.6814
124.702
37.9123
18.0692
9.84549
34.0277
11.6133
-14.1857
-0.961951
3.70743
0.563701
0.0771704
2.65928
0.369327
0.0496561
5.26875
0.795991
0.118048
3.38677
0.468264
0.0632228
9.87051
1.47201
0.229169
5.28709
0.703742
0.0940217
299.842
89.5151
18.4772
117.104
26.6689
5.42754
50.4935
9.65452
1.79679
21.5297
3.36175
0.514604
7.86183
1.0493
0.128326
394.057
104.146
20.7249
159.772
32.4029
5.42004
67.2177
12.1361
1.80472
26.3642
4.39389
0.588567
9.09102
1.31626
0.150011
19.0942
1.8873
0.16006
0.0117724
8.19419
0.860137
0.0749792
0.00588486
21.1684
2.12136
0.188269
0.0160758
11.3957
1.1897
0.131742
0.0147424
24.3768
2.39322
0.250234
0.0272611
22.7041
2.2406
0.174457
0.0122584
14.9866
1.49066
0.0549465
-0.00410795
5.75813
0.658909
0.0390636
0.00186386
16.7938
1.8123
0.156973
0.00789104
8.85133
0.954105
0.11537
0.0119509
19.0492
1.99342
0.21193
0.0206855
11.9713
1.25122
0.149709
0.0141693
12.3848
1.35484
0.121147
0.00839514
5.73212
0.635743
0.080451
0.00951827
5.16343
0.588915
0.0525576
0.00517009
2.12846
0.248422
0.0329532
0.00470007
18.7943
1.86653
0.17253
0.0139338
11.0144
1.20963
0.144056
0.0149483
19.7749
1.95569
0.180132
0.0143778
11.5157
1.25103
0.151604
0.0156415
20.9392
2.01985
0.210096
0.0199088
12.7799
1.33259
0.168865
0.0184735
14.9527
1.53492
0.187884
0.0241262
14.308
1.48744
0.207761
0.0256498
10.8117
1.12935
0.144051
0.015345
4.92588
0.585925
0.0842806
0.0102343
1.42446
0.17528
0.0236153
0.00304586
5.83992
0.674348
0.0942659
0.0110565
1.69934
0.203197
0.0270236
0.00343617
7.40237
0.804451
0.109326
0.0125094
2.16693
0.243226
0.0310855
0.00392597
7.86973
0.827391
0.116972
0.0132166
2.56149
0.272558
0.0350873
0.00431749
7.82162
0.822103
0.115143
0.0125684
2.44126
0.261094
0.0354495
0.00428178
5.17398
0.544745
0.067496
0.00763858
1.93504
0.211334
0.0257774
0.00304702
6.60123
0.686722
0.0895023
0.0100154
2.18874
0.235272
0.0305599
0.00372726
3.48171
0.363108
0.0443502
0.00554321
1.33039
0.147561
0.0170764
0.00211565
1.35601
0.14032
0.0181641
0.00248725
0.529685
0.0593562
0.00703839
0.000896548
0.00118154
0.000114988
1.06232e-05
9.52225e-07
9.06262e-08
0.000547041
5.34676e-05
4.98194e-06
4.50893e-07
4.35258e-08
0.0015243
0.000143139
1.31586e-05
1.19827e-06
1.1747e-07
0.000956
8.53434e-05
7.98309e-06
7.52855e-07
7.67255e-08
0.00176947
0.000157413
1.46808e-05
1.37906e-06
1.40028e-07
0.00138922
0.000155138
1.6401e-05
1.66742e-06
1.79499e-07
0.00085473
0.000119454
1.35434e-05
1.421e-06
1.55852e-07
0.000453741
6.57269e-05
8.16772e-06
9.27159e-07
1.08614e-07
0.00130718
0.000139502
1.41221e-05
1.39236e-06
1.46564e-07
0.000867744
9.22389e-05
9.76961e-06
1.01187e-06
1.11368e-07
0.00164515
0.000150193
1.41982e-05
1.35444e-06
1.40019e-07
0.000741403
8.70128e-05
9.85628e-06
1.06376e-06
1.20427e-07
0.00110587
0.00012146
1.25638e-05
1.25498e-06
1.3322e-07
0.000675609
7.39271e-05
8.02325e-06
8.5013e-07
9.56968e-08
0.000467017
5.30558e-05
6.09587e-06
6.77868e-07
7.93834e-08
0.000349382
3.95515e-05
4.53151e-06
5.07413e-07
6.01919e-08
0.00118661
0.000107297
9.58324e-06
8.43377e-07
7.91122e-08
0.000543924
4.50994e-05
3.88122e-06
3.36492e-07
3.13632e-08
0.00135237
0.000125742
1.13912e-05
1.01921e-06
9.80855e-08
0.000604421
5.19425e-05
4.5818e-06
4.05866e-07
3.88512e-08
0.00146987
0.000127797
1.1489e-05
1.04797e-06
1.04164e-07
0.000716209
6.33086e-05
5.88364e-06
5.55254e-07
5.70283e-08
0.00138739
0.000127491
1.24595e-05
1.2278e-06
1.30747e-07
0.000869942
7.88828e-05
7.76432e-06
7.71638e-07
8.27679e-08
0.000705338
8.98495e-05
1.04896e-05
1.15049e-06
1.31664e-07
2134.79
7708.67
2171.4
7535.05
2341.39
7108.11
2241.57
6588.66
1569.53
6038.8
10.0489
2108.74
427.843
3541.07
-23.9112
1134.3
27.1871
480.088
76165.1
57965.5
52669.4
49270.5
46384.3
23474.9
19822.8
18076.1
16642.8
15250.1
75236.6
57175.7
51984.5
48640.4
45827.7
23560.8
20234.1
18316.7
16889.7
15760.9
71929.2
54641.2
49679.5
46482.6
43787.7
22624.7
19455.8
17636
16281.3
15204
66642.1
50540.4
45934.6
42961.5
40446
21450.2
18372.3
16577.7
15229.4
14143.9
57675.7
43553.9
39570.3
37008.8
34836.1
19792.6
16878.3
15208.8
13955.3
12938.6
30718.1
23516.8
21324.2
19885.8
18667.8
10094.8
8623.64
7784.65
7149.21
6625.13
43477.1
33153.1
30081.5
28080.6
26397.3
14500.4
12459.1
11283.9
10395.5
9669.44
18611.7
14297.1
12965.7
12091.7
11345.4
5945.86
5104.62
4620.41
4240.51
3942.91
6448.71
4937.97
4482.11
4185.27
3930.8
2101.48
1681.59
1518.71
1379.41
1276.26
512.041
2360.42
11602
1757.15
1165.71
1238.14
2492.92
3397.64
2966.71
5336.32
6431.48
9158.67
8970.44
10812.6
4396.08
5575.17
3372.46
4011.46
1868.78
1932.93
210.836
44.5504
0.798926
-0.0213468
0.0464838
0.0515167
0.282474
1473.58
308.873
238.583
133.909
23.6075
5.89493
62.1584
7.75301
3.45422
3.7254
0.910907
826.001
173.201
21.0848
10.9124
41.6335
11.8001
3.98861
3.4522
0.575754
0.585858
4.83021
2.99934
833.197
132.096
304.724
66.2217
34.4018
185.945
5.42549
0.41563
7.67308
83.2813
34.1012
14.1052
4.94305
1.34273
20.7886
9.48616
3.75771
1.27051
0.31152
0.486011
0.252442
0.1109
0.0412678
0.0100529
-0.0102646
-0.0038852
-0.0010757
-0.00016985
-7.22437e-06
0.0306373
0.0170265
0.00792484
0.0031031
0.000777557
0.0329386
0.0178893
0.0081791
0.00315535
0.000784232
0.174962
0.0928392
0.0416567
0.0157749
0.00388224
561.517
231.768
89.8194
29.9218
9.25655
129.941
53.1478
20.8681
6.90045
1.91933
102.122
44.1407
17.2166
5.66033
1.51126
51.5179
18.5711
6.76563
2.22776
0.564621
8.9939
3.08434
1.07829
0.3471
0.0836008
3.39764
1.6879
0.712616
0.255081
0.0614775
30.6267
13.7339
5.29763
1.75332
0.425872
4.1584
1.9188
0.753685
0.255255
0.0606035
1.92372
0.928208
0.383238
0.135532
0.0324187
2.11582
1.0289
0.425644
0.150408
0.0360084
0.494556
0.23181
0.0932473
0.0323593
0.00763011
335.597
143.066
57.8216
19.1353
5.55867
77.7185
34.625
13.9672
4.67749
1.23018
11.6049
5.6296
2.33791
0.822622
0.199253
6.01607
2.9196
1.21349
0.428062
0.103409
21.5425
10.0697
4.05782
1.38835
0.338772
7.0376
3.59552
1.55186
0.562134
0.133836
2.25319
1.11066
0.46725
0.166426
0.0399365
2.04933
1.0432
0.450133
0.164491
0.039711
0.338541
0.171302
0.0736435
0.026852
0.00651034
0.356839
0.185288
0.0813486
0.0302768
0.00738209
2.75616
1.35962
0.571521
0.204367
0.0491822
1.75112
0.880837
0.376713
0.136826
0.0330815
331.13
132.02
53.7519
17.5759
5.18672
61.5441
27.6459
10.9323
3.65395
0.908008
133.634
60.2365
23.8827
7.77066
2.00905
31.8505
14.5839
5.77602
1.94517
0.474481
18.5814
8.90977
3.67174
1.28132
0.306809
89.4337
40.198
16.249
5.43389
1.33489
3.16747
1.59221
0.67985
0.245905
0.0591241
0.254849
0.133014
0.0586485
0.0219046
0.00534563
4.43633
2.21974
0.944219
0.339485
0.08147
-68038.2
-114568
-55490.3
-92217
-52662.2
-111169
-63998
-141324
-40126.8
-23977.1
-49526.9
-28342.4
-32742.4
-17063.4
-44283.4
-21029
-63717.9
-53639.7
-97664.6
-79589
-53079.4
-47151.4
-80459.3
-68093.1
-44800.7
-41420.4
-33853.9
-29139.8
-42311.3
-43885.3
-93969.6
-25060.1
-35658.2
-12628.5
-100501
-27340.1
-28373.8
-10303.1
-79799.7
-24620.3
-39432.5
-14983
-79834
-24212.1
-39832.9
-17027.1
-54507.2
-20788.7
-36605.2
-17451.4
-46796.8
-17906.7
-34445
-19389.6
-34096.2
-14853.8
-47470.3
-18335.4
-16472
-6332.15
-17065.8
-9933.57
-16854.1
-8341.29
-11722.2
-7209.22
-12016.1
-5990.34
-20744
-11192.3
-22261.6
-13751
-11941.5
-6033.45
-6013.85
-3783.61
-8496.13
-4429
-4204.9
-2894.68
-14702.4
-7596.94
-7660.45
-4163.26
-22148.3
-13639.8
-16219.7
-25780.5
-26399.1
-23110.4
-22086.3
-42019.2
-15416.2
-8135.6
-9881.71
-15029
-7921.53
-3776.63
-4440.06
-5548.07
-36293
-44212.1
-23173.2
-61915.1
-36006.4
-39686.9
-26525.8
-62719.7
-33203.3
-32136.3
-31396
-58583.9
-11790
-7518
-16963.2
-25303.1
-35640.5
-8366.94
-13429.6
-21498
-33541.1
-72325.7
-6017.94
-8819.11
-13573.3
-24537.8
-54773.6
-38746
-19915.5
-58467.6
-30206.7
-33436.5
-18193
-56865.4
-29881.6
-25618.3
-15297.3
-51299.6
-28909.4
-5555.71
-2818.89
-8985.81
-5081.15
-14213.9
-8830.54
-22353
-14790.2
-46898.9
-28330.9
-4290.04
-2562.04
-7270.79
-5020.24
-12528.1
-9169.11
-22590
-16086.7
-42683.7
-26657.8
-6698.37
-3115.64
-4734.54
-2793.27
-4493.79
-2672.71
-3299.81
-2258.35
-7310.02
-4461.98
-10645
-5204.12
-2086.69
-1776.66
-741.837
-551.181
-1811.92
-1474.9
-592.83
-463.258
-2893.43
-2693.03
-976.006
-813.845
-11662.6
-5920.27
-19395.3
-6947.61
-17973.8
-8366.51
-30305.1
-11689.6
-5301.35
-3295.71
-10438.9
-3584.82
-3232.39
-1933.28
-4905.03
-2220.64
-9226.93
-2794.38
-14059
-4249.7
-8930.12
-2764.87
-13932
-4330.04
-7702.19
-2283.82
-13598
-4250.81
-1194.05
-328.945
-2429.76
-714.897
-4522.99
-1379.04
-7808.99
-2331.34
-13618.6
-4214.68
-1258.23
-358.609
-2696.1
-901.785
-5010.19
-1635.37
-8672.02
-2697.26
-13384.9
-3923.45
-7967.37
-5973.39
-7532.69
-6196.22
-17456.3
-10500.7
-16956.7
-11520.6
-3896.6
-1748
-1881.71
-766.396
-3686.61
-1991.44
-1880.97
-1115.97
-3324.93
-3885.82
-3648.74
-3786.24
-2471.28
-2201.17
-5708.11
-1811.64
-12904.3
-4304.04
541.925
-618.908
-2209.44
-1189.96
-814.272
-506.272
-671.245
-140.007
-302.157
-59.1518
-740.215
-156.077
-455.745
-88.3117
-966.049
-192.239
-895.016
-175.064
-815.02
-150.277
-239.833
-30.1189
-3800.51
-2426.53
-3715.39
-1940.29
-7050.52
-4646.2
-7067.56
-3727.53
-1762.56
-891.733
-1928.63
-1117.82
-2626.73
-1407.14
-1306.64
-946.301
-4961.35
-2708.49
-2520.38
-1802.7
-1220.75
-651.209
-552.47
-451.764
-591.735
-106.065
-343.375
-68.3265
-656.248
-117.505
-434.13
-88.8709
-380.244
-74.7632
-240.538
-43.7323
-112.855
-18.8267
-158.05
-21.2973
-681.903
-508.447
-153.847
-118.686
-724.237
-556.317
-155.316
-119.041
-862.559
-631.752
-168.743
-123.868
-2360.15
-4481.31
-1286.93
-498.47
-94.1777
-5055.97
-2724.19
-1475.13
-593.582
-120.162
-3792.24
-2066.27
-972.459
-394.918
-76.3377
-300.531
-135.562
-74.1037
-41.668
-338.112
-155.867
-79.0062
-45.2691
-420.585
-209.75
-87.0932
-52.0819
-3493.37
-1615.8
-2102.34
-936.413
-1078.64
-481.514
-422.375
-193.639
-80.0657
-44.5591
-2324.41
-1274.36
-1245.65
-650.74
-584.826
-294.815
-232.189
-115.501
-43.6833
-28.177
-1105.52
-401.879
-828.398
-268.292
-2348.54
-967.56
-1800.47
-711.259
-360.639
-115.691
-477.899
-170.908
-712.907
-215.181
-220.157
-65.0643
-1284.27
-488.958
-399.044
-150.983
-336.105
-95.7209
-103.252
-28.7612
-118.933
-45.7533
-21.7632
-13.6405
-168.294
-63.113
-27.5844
-16.1259
-124.067
-36.9912
-17.7073
-9.56826
-35.8206
-11.6408
14.1909
1.03466
-49.979
-13.0646
-17.7967
-3.47054
-62.8096
-16.9342
-19.8794
-3.90689
-85.5423
-22.6985
-21.9956
-3.99402
-621.707
-161.808
-353.407
-89.1284
-198.421
-51.9613
-76.9989
-19.2135
-18.1947
-3.33593
-561.221
-130.464
-261.628
-52.95
-114.508
-22.176
-42.9932
-7.88609
-13.3213
-2.20323
-17.8261
-1.8863
-0.160996
-0.0112873
-7.78577
-0.835506
-0.0738375
-0.00582744
-19.1568
-2.04518
-0.18236
-0.0151819
-10.0162
-1.05303
-0.123916
-0.0148016
-21.9119
-2.26186
-0.24227
-0.0269167
-19.7779
-1.89272
-0.132688
-0.00747249
-11.531
-1.04303
0.00398319
0.0110723
-2.02637
-0.147096
0.0204955
0.00428555
-15.4842
-1.64989
-0.132357
-0.00393533
-8.33883
-0.882239
-0.104666
-0.0103151
-17.433
-1.87806
-0.200842
-0.0192329
-10.915
-1.1559
-0.138031
-0.0119984
-11.1077
-1.1595
-0.0934618
-0.00480301
-5.41075
-0.576228
-0.0695241
-0.00771944
-3.8359
-0.373088
-0.0216953
-0.0013904
-1.84579
-0.191282
-0.0216573
-0.00280067
-19.5937
-2.06797
-0.187328
-0.0141155
-15.6516
-1.661
-0.189722
-0.0182365
-19.4968
-2.05689
-0.184554
-0.0134468
-15.3559
-1.62342
-0.189088
-0.0179522
-19.2283
-1.99261
-0.209788
-0.019525
-15.016
-1.55998
-0.194992
-0.0198731
-12.6437
-1.38136
-0.174718
-0.0232196
-14.8098
-1.57388
-0.221615
-0.0262127
-9.64598
-1.03076
-0.130941
-0.0122971
-9.60935
-0.994476
-0.129812
-0.0143771
-3.33302
-0.334431
-0.0384282
-0.00459248
-9.97148
-1.0197
-0.132128
-0.0143
-3.48885
-0.34581
-0.0399803
-0.00478004
-9.98957
-1.00364
-0.133867
-0.0145149
-3.48099
-0.336115
-0.0386602
-0.0047183
-8.62513
-0.891619
-0.13049
-0.0141888
-3.03713
-0.302812
-0.0377897
-0.00458539
-7.38488
-0.782859
-0.116687
-0.0126312
-2.2943
-0.236668
-0.0336646
-0.00410907
-4.95696
-0.516761
-0.0637589
-0.00691162
-1.71398
-0.179154
-0.021957
-0.00257093
-6.2461
-0.655016
-0.0875541
-0.00957234
-1.86279
-0.192985
-0.0263257
-0.00326135
-3.34069
-0.338001
-0.0399174
-0.0047302
-1.22022
-0.127811
-0.0141832
-0.00171305
-1.24921
-0.117297
-0.013731
-0.00167201
-0.466365
-0.0454186
-0.00472653
-0.000550378
-0.00114055
-0.00010911
-9.77672e-06
-8.41215e-07
-7.60098e-08
-0.000524832
-4.95784e-05
-4.43391e-06
-3.82216e-07
-3.47213e-08
-0.00138638
-0.000123595
-1.06751e-05
-9.07306e-07
-8.21803e-08
-0.000827253
-6.57241e-05
-5.56001e-06
-4.78749e-07
-4.44738e-08
-0.00151659
-0.00012192
-1.03476e-05
-8.87301e-07
-8.19657e-08
-0.000811282
-8.50655e-05
-8.33234e-06
-7.80323e-07
-7.67801e-08
-0.000220422
-4.42161e-05
-4.84744e-06
-4.56797e-07
-4.31218e-08
0.000283495
2.52413e-05
2.4546e-06
2.56407e-07
3.01855e-08
-0.000906998
-8.9767e-05
-8.20968e-06
-7.25709e-07
-6.7768e-08
-0.000565071
-5.08663e-05
-4.70098e-06
-4.32789e-07
-4.23976e-08
-0.00133737
-0.000109129
-9.24558e-06
-7.95566e-07
-7.40382e-08
-0.000306336
-3.42744e-05
-3.82805e-06
-4.04434e-07
-4.422e-08
-0.000690626
-6.85399e-05
-6.18094e-06
-5.26089e-07
-4.61052e-08
-0.000368356
-3.11325e-05
-2.65902e-06
-2.25382e-07
-2.01379e-08
2.14478e-05
1.04078e-05
1.58742e-06
2.00324e-07
2.56886e-08
-4.64649e-05
3.52732e-06
9.85862e-07
1.46705e-07
2.01644e-08
-0.00117498
-0.000104558
-9.09468e-06
-7.72052e-07
-6.92772e-08
-0.000552128
-4.45233e-05
-3.71292e-06
-3.10017e-07
-2.76886e-08
-0.00125242
-0.000113348
-9.82322e-06
-8.31936e-07
-7.49512e-08
-0.000576082
-4.75964e-05
-4.00818e-06
-3.36526e-07
-3.03531e-08
-0.00131498
-0.000106214
-8.82151e-06
-7.41992e-07
-6.76204e-08
-0.000590384
-4.71775e-05
-4.00551e-06
-3.48597e-07
-3.30642e-08
-0.00102039
-8.22319e-05
-7.25301e-06
-6.5751e-07
-6.47855e-08
-0.000622247
-4.85487e-05
-4.32582e-06
-3.99629e-07
-4.03509e-08
-0.000147275
-2.68672e-05
-3.54454e-06
-4.0845e-07
-4.75451e-08
-2650.87
-7707.48
-2653.34
-7586.42
-2782.59
-7242.25
-2553.63
-6756.66
-1734.53
-6144.75
-45.5514
-2137.03
-504.358
-3599.31
7.9821
-1145.96
-35.137
-485.107
-76326.7
-57981
-52671.4
-49270.8
-46384.4
-23492.2
-19826.4
-18077.8
-16643.6
-15250.7
-75382.2
-57189.8
-51986.4
-48641.2
-45828.5
-23583.7
-20239.2
-18318.2
-16890.3
-15761.4
-72040.5
-54651.5
-49680.4
-46483.3
-43789
-22652.4
-19460.7
-17637.3
-16282.4
-15205.3
-66713.5
-50547.1
-45935.1
-42962.3
-40447.5
-21477.1
-18376.2
-16578.3
-15230
-14144.8
-57709.9
-43556.4
-39569.8
-37009
-34836.7
-19812.2
-16880.5
-15208.8
-13955.7
-12939.4
-30722.8
-23517.3
-21324.5
-19886.3
-18668.3
-10099.6
-8624.12
-7784.74
-7149.62
-6625.74
-43489
-33153.7
-30081.1
-28080.7
-26397.8
-14509.8
-12459.9
-11283.6
-10395.6
-9669.95
-18614.3
-14298
-12966.5
-12092.5
-11346.2
-5947.97
-5104.9
-4620.62
-4240.91
-3943.37
-6448.84
-4937.53
-4481.7
-4184.94
-3930.45
-2102.19
-1681.49
-1518.63
-1379.51
-1276.22
-988.333
-3511.89
-13261.4
-2134.72
-9444.79
-4765.52
-8589.44
-4752.35
-21078.8
-12382.5
-24464.5
-14026.6
-4.84688e-05
-0.000219469
-0.000663777
-0.0015162
-7.21276e-05
0.035087
-0.000220143
-0.00105654
-0.00347595
-0.00931529
-0.016423
0.010851
-1.54128e-05
-6.96534e-06
-7.04493e-05
-3.79495e-05
-0.000158393
-0.000120659
0.000364359
-4.90517e-05
0.00442497
0.000968376
0.028511
0.00945793
0.34321
1.94609
8.97653
8.31243
-6.02784
-7.5537
0.25068
1.2796
4.20228
7.93476
5.36779
1.42747
-3.38647e-05
-2.03242e-05
-1.02986e-05
-4.37964e-06
-1.16275e-06
-0.000151831
-9.00582e-05
-4.50687e-05
-1.89444e-05
-4.99074e-06
-0.000451718
-0.000262847
-0.000128917
-5.31785e-05
-1.38338e-05
-0.0010056
-0.00056858
-0.000270821
-0.000108715
-2.7774e-05
2.36461e-05
5.37153e-05
4.34553e-05
2.37702e-05
7.06996e-06
0.0227826
0.0125778
0.00584526
0.00229212
0.000576279
-0.000152141
-9.00959e-05
-4.499e-05
-1.88665e-05
-4.96128e-06
-0.000723108
-0.000423336
-0.00020886
-8.66046e-05
-2.26036e-05
-0.00234572
-0.00135099
-0.000655202
-0.000267342
-6.90223e-05
-0.00618358
-0.0034958
-0.00166339
-0.000666734
-0.000170093
-0.0106844
-0.00591033
-0.00275204
-0.00108115
-0.000272173
0.00710896
0.0039545
0.00184962
0.000729467
0.000184007
-1.08441e-05
-6.56525e-06
-3.3597e-06
-1.44259e-06
-3.85522e-07
-4.94964e-06
-3.03421e-06
-1.57437e-06
-6.8501e-07
-1.84741e-07
-4.90053e-05
-2.92657e-05
-1.47585e-05
-6.25076e-06
-1.65554e-06
-2.67023e-05
-1.61669e-05
-8.27427e-06
-3.5537e-06
-9.50103e-07
-0.000108394
-6.3495e-05
-3.13733e-05
-1.30371e-05
-3.4093e-06
-8.40498e-05
-5.02367e-05
-2.5342e-05
-1.07339e-05
-2.84291e-06
0.000246016
0.000141781
6.87666e-05
2.80384e-05
7.23004e-06
-3.72146e-05
-2.41078e-05
-1.30562e-05
-5.86613e-06
-1.61264e-06
0.00292852
0.00165094
0.000783422
0.000313162
7.97315e-05
0.000627034
0.000345075
0.00015973
6.23089e-05
1.55919e-05
0.0184644
0.0101716
0.00471816
0.00184671
0.000463753
0.00612948
0.00337569
0.00156431
0.000611388
0.00015332
0.213957
0.113587
0.050903
0.0193058
0.00475515
1.16535
0.597439
0.2596
0.0956754
0.0231983
5.10719
2.51943
1.06042
0.37923
0.0908613
4.45159
2.08152
0.85888
0.307304
0.0735685
-1.32947
-0.310129
-0.044449
0.028998
-0.00377487
-2.63348
-1.03706
-0.363903
-0.0968268
-0.0296076
0.157333
0.0839343
0.0377641
0.0143776
0.00354778
0.780922
0.406087
0.178618
0.0666253
0.0162454
2.48527
1.259
0.542008
0.198358
0.0479108
4.55079
2.25184
0.95442
0.345149
0.083069
3.37664
1.74428
0.757877
0.28138
0.0669647
1.05054
0.572583
0.25722
0.0987906
0.023426
4.81284e-05
0.000218491
0.000660639
0.00150733
6.02119e-05
-0.0349628
0.000218674
0.00105203
0.00346147
0.0092748
0.0163456
-0.0108362
1.5315e-05
6.95557e-06
7.01788e-05
3.81043e-05
0.000158297
0.000122876
-0.00035473
6.27311e-05
-0.00435358
-0.00109248
-0.0281176
-0.00941068
-0.341764
-1.93617
-8.93112
-8.39125
5.62435
7.15237
-0.249779
-1.27508
-4.19138
-7.94109
-5.45132
-1.53812
3.36374e-05
2.02008e-05
1.02477e-05
4.36461e-06
1.16025e-06
0.000151203
8.97366e-05
4.49498e-05
1.89173e-05
4.98871e-06
0.000449814
0.000261967
0.000128658
5.31608e-05
1.38481e-05
0.00100081
0.000566853
0.000270686
0.000108994
2.79146e-05
-2.63936e-05
-5.12799e-05
-3.99077e-05
-2.13233e-05
-6.24501e-06
-0.0226858
-0.0125154
-0.00581288
-0.00227868
-0.000572802
0.000151162
8.95646e-05
4.47703e-05
1.88009e-05
4.95011e-06
0.000720159
0.000421786
0.000208251
8.64405e-05
2.25805e-05
0.00233647
0.00134629
0.000653471
0.000266941
6.89862e-05
0.00615832
0.00348345
0.00165913
0.000665913
0.000170079
0.010638
0.00588912
0.00274569
0.00108052
0.000272418
-0.00709093
-0.00393874
-0.00183929
-0.000724312
-0.000182515
1.07801e-05
6.53182e-06
3.34701e-06
1.43959e-06
3.85357e-07
4.9453e-06
3.03421e-06
1.5766e-06
6.87174e-07
1.85573e-07
4.8844e-05
2.91956e-05
1.47427e-05
6.25396e-06
1.65851e-06
2.68277e-05
1.62596e-05
8.33404e-06
3.58565e-06
9.60007e-07
0.000108459
6.36496e-05
3.15293e-05
1.31401e-05
3.44401e-06
8.56747e-05
5.12904e-05
2.5932e-05
1.10121e-05
2.92245e-06
-0.000239072
-0.000137434
-6.64654e-05
-2.70225e-05
-6.95361e-06
4.68425e-05
3.00108e-05
1.61422e-05
7.22328e-06
1.98187e-06
-0.00287888
-0.00162129
-0.000768614
-0.000307026
-7.81422e-05
-0.000709883
-0.00039164
-0.000181603
-7.09563e-05
-1.7781e-05
-0.0181933
-0.0100126
-0.004641
-0.00181587
-0.000456045
-0.00609543
-0.00335371
-0.00155296
-0.000606785
-0.000152262
-0.213058
-0.113139
-0.0507384
-0.0192656
-0.00475063
-1.15937
-0.594539
-0.258564
-0.0954316
-0.0231732
-5.07873
-2.50464
-1.05453
-0.37751
-0.0905734
-4.46713
-2.07114
-0.844976
-0.298838
-0.0708302
1.10991
0.214933
0.0168815
-0.0319244
0.00464272
2.39602
0.923179
0.324442
0.0884214
0.0289656
-0.156743
-0.0836202
-0.0376359
-0.0143392
-0.00354092
-0.777986
-0.404528
-0.17798
-0.0664331
-0.0162111
-2.47765
-1.2546
-0.540012
-0.197666
-0.0477638
-4.55053
-2.24914
-0.951906
-0.343759
-0.0826465
-3.42447
-1.76602
-0.764729
-0.282465
-0.0669126
-1.1179
-0.60559
-0.269084
-0.101538
-0.0236848
-215.432
-45.8627
-0.794305
0.0209117
-0.0417274
-0.0425425
-0.280956
-1442.29
-305.685
-231.719
-113.509
-5.26055
-60.7854
-2.6312
0.831978
-0.744013
-803.593
-168.667
-20.4821
-10.7247
-41.2373
-11.6274
-3.95437
-3.41591
-0.377637
-0.519222
-4.62859
-2.92658
-828.207
-132.153
-303.586
-66.1307
-34.1428
-183.183
-5.37641
-0.395809
-7.56359
-85.6666
-35.0947
-14.397
-4.97597
-1.33603
-21.5342
-9.83079
-3.87024
-1.29066
-0.311775
-0.483333
-0.251225
-0.110518
-0.0412057
-0.0100562
0.0103228
0.00415313
0.00132434
0.000314522
5.18469e-05
-0.0273185
-0.0150663
-0.00696147
-0.00270942
-0.000676401
-0.027034
-0.0145806
-0.00661951
-0.00253663
-0.000627574
-0.173086
-0.0912705
-0.040707
-0.0153407
-0.00376579
-575.316
-244.533
-97.3812
-33.1281
-10.1884
-132.91
-55.4015
-22.2909
-7.5428
-2.08405
-101.89
-45.0275
-17.9664
-6.02839
-1.63265
-48.8007
-19.5983
-7.78031
-2.62782
-0.649257
-2.9938
-1.48087
-0.626432
-0.225443
-0.0548393
-30.9622
-14.4347
-5.77492
-1.96264
-0.481837
-1.45353
-0.704686
-0.29386
-0.104564
-0.0251659
0.447259
0.202582
0.0777409
0.0257006
0.00558851
-0.407989
-0.194398
-0.0795623
-0.0278424
-0.00659582
-321.734
-136.867
-55.6355
-18.648
-5.48209
-75.3824
-33.4912
-13.5568
-4.57774
-1.21932
-11.2635
-5.47107
-2.28287
-0.809606
-0.197899
-5.93135
-2.89181
-1.20982
-0.429999
-0.104592
-21.5674
-10.2118
-4.17559
-1.44877
-0.356655
-6.85741
-3.46527
-1.48198
-0.533722
-0.126711
-2.23191
-1.0994
-0.462549
-0.164904
-0.0396374
-2.02839
-1.03365
-0.447027
-0.163889
-0.0396901
-0.214723
-0.106143
-0.0449124
-0.0161536
-0.00392292
-0.315172
-0.163345
-0.0717004
-0.0267021
-0.00651954
-2.64642
-1.31251
-0.556245
-0.200684
-0.0486719
-1.71156
-0.863789
-0.371269
-0.135616
-0.0329552
-327.986
-130.621
-53.1937
-17.4363
-5.16988
-61.5278
-27.6073
-10.9013
-3.63803
-0.903112
-131.336
-58.6075
-23.0302
-7.44172
-1.91
-31.6366
-14.3981
-5.66719
-1.89883
-0.462033
-18.3947
-8.80018
-3.62229
-1.26443
-0.303317
-87.869
-39.4379
-15.9703
-5.36344
-1.32654
-3.14111
-1.58135
-0.677022
-0.245761
-0.0592875
-0.241969
-0.126004
-0.0554904
-0.0207135
-0.00505648
-4.36355
-2.17955
-0.926773
-0.333625
-0.0802497
-0.0694276
-0.295158
-0.878723
-2.23302
-4.97154
-10.138
-44097.8
-37149.5
-31076.7
-37423.9
-27708.1
-18654.5
-21250.7
-12814.1
-43672.2
-41225.4
-38235.2
-38513.3
-30659.5
-23308.7
-34526.9
-33180.6
-27988.2
-22221.7
-26821.2
-20915.1
-15021
-15612.9
-9922.06
-35407.5
-34459.4
-30897.2
-30605.4
-24076.8
-19878.6
-25765.8
-22161.7
-18999.1
-14303.2
-16969.2
-14492.3
-10527
-10413.4
-6901.05
-25372.8
-26967.9
-22229.7
-23467.2
-17292.7
-14140.8
-18953.6
-11305
-9893.83
-6776.06
-7863.32
-7722.84
-5801.25
-5143.77
-3579.45
-14690.3
-17448.9
-12938.4
-15108.6
-10249.1
-8123.32
-11785.7
-5209.07
-4626.27
-2900.82
-3312.09
-3666.28
-2766.31
-2268.45
-1629.32
-7485.61
-9137.05
-6607.31
-7906.66
-5280.31
-4107.45
-6099.25
-1481.41
-1327.06
-784.869
-886.388
-1068.45
-833.632
-627.984
-469.769
-2261.63
-2929.67
-1990.54
-2442.52
-1614.62
-1263.11
-1901.73
-8975.84
-8060
-17090.2
-19816.6
-6745.57
-4960.77
-12960.7
-8210.72
-4164.38
-1773.06
-3997.38
-1908.39
-3543.63
-3232.75
-2150.86
-7699.08
-6665.38
-13263.7
-15685.3
-5363.78
-4031.88
-9821.79
-6512.98
-3662.08
-1210.55
-3435.37
-1320.99
-2727.86
-2536.02
-1533.31
-5411.89
-4664.61
-8835.19
-10391.4
-3719.81
-2768.24
-6600.76
-4414.48
-2302.7
-768.346
-2158.22
-862.364
-1671.77
-1580.97
-975.611
-2693.67
-2324.19
-4204.87
-4890.05
-1847.02
-1366.47
-3207.58
-2201.29
-1219.94
-381.506
-1125.71
-421.075
-864.259
-788.398
-474.815
-1117.79
-970.655
-1741.46
-2001.9
-764.59
-550.845
-1359.48
-948.201
-501.17
-145.525
-465.408
-171.341
-358.108
-319.399
-198.655
-287.044
-250.815
-454.239
-517.329
-198.518
-144.242
-361.698
-260.432
-123.775
-36.1805
-117.644
-43.7274
-93.8535
-83.3432
-52.3146
24988.1
76179.7
20669.7
74247.6
15521.2
69430.1
18343
87340.5
20722.2
115849
23185.4
96984.2
24817.2
89167.2
26670
84899.1
15443.2
8527.86
38682.6
21345.4
13482
5889.21
35720.4
15896.6
22011.6
18549
66040
54624.5
17043.9
14833.5
60828.7
51765.7
33904
15324.8
26016.9
11482.8
15799.7
34103.7
87142.7
23113.4
32035.1
10903.7
95348.6
25648.8
25713.3
8931.09
73123.9
22574.1
35619.3
13196.7
73134.4
22522.6
26804.2
13284.5
41587.1
16752.8
27041.8
14698.6
38406.8
15346.8
28339.7
17594.8
28663
13274.3
43707.5
17179.4
15209.4
5903.44
19077.3
10867.7
14545.1
7645.07
13994.4
8709.14
10302.5
5437.3
18125.7
10510.7
22366.2
13679.5
10404.4
5591.33
5093.69
3500.36
7337.21
4064.61
3494
2654.39
13047.3
7190.5
6693.48
3907.82
20087.5
12946.9
15694.8
25570.9
24587.9
22349.1
21432.2
41682
14147.5
7718.94
9589.95
14920.6
7183.19
3522.81
4262.04
5482.74
29511.2
49322.2
21032.4
62484.9
31791.5
44192.2
24959.4
63255.5
31439.7
34749
30386.1
58929.2
16024.7
11974.9
18306.7
23360
34578.7
8711.07
14164.5
22004.4
33612.3
72096.6
8301.73
10363.2
13783.5
23939.7
54394
48341
27435.6
60504.8
32744.1
40570.7
24060.1
58209.5
31734.7
30056.9
19467.9
52034.1
30033.2
4784.64
2099.86
8695.03
4876.23
15198.3
9715.12
24443.9
16464.3
47188.4
28573.1
4496.69
2356.35
7672.95
5125.67
13052.5
9600.14
22973.6
16554.9
42558.2
26736.2
7290.96
3211.21
4726.44
2781.42
5264.44
2840.37
3380.7
2320.31
7202.69
4388.58
10842.8
5178.47
1980.44
1739.21
649.891
519.732
1740.8
1469.38
518.202
444.687
2776.79
2640.76
887.32
781.239
11530.1
5834.91
19310.3
6891.69
17881.8
8249.63
30170.3
11589.1
5208.14
3250.18
10391.8
3559.88
3168
1907.48
4876.59
2208.42
12516.6
4093.19
863.194
14572.4
4638.99
986.194
11504.2
3848.95
849.147
13961.4
4444.69
925.41
9261.7
2995.74
622.573
13087.6
4112.01
834.675
845.664
290.082
61.6147
2287.98
805.117
170.244
4859.35
1660.51
343.015
8176.73
2677.18
539.56
12714
3993.92
795.201
1092.22
373.087
84.3925
2656.01
1040.69
240.89
5038.95
1917.93
423.374
8504.02
3049.74
640.235
12756.9
4175.52
843.217
1664.14
1957.36
5106.91
4455.49
5726.96
3608.93
12225.2
8356.19
508.007
239.873
544.635
255.829
579.177
469.579
835.566
652.743
2575.13
1166.47
2645.62
1292.23
876.556
1811.64
4874.18
1336.53
11309.6
3397.48
-725.078
473.938
1776.13
963.51
826.088
481.796
905.321
166.23
242.677
60.4658
1057.85
191.278
417.369
95.3244
1278.94
232.757
866.537
190.296
851.369
170.091
270.676
49.9199
4999.49
3087.77
3220.43
1824.46
8827.43
5875.47