/*--------------------------------*- C++ -*----------------------------------*\
  =========                 |
  \\      /  F ield         | OpenFOAM: The Open Source CFD Toolbox
   \\    /   O peration     | Website:  https://openfoam.org
    \\  /    A nd           | Version:  11
     \\/     M anipulation  |
\*---------------------------------------------------------------------------*/
FoamFile
{
    format      ascii;
    class       volScalarField;
    location    "0.1";
    object      gradTx;
}
// * * * * * * * * * * * * * * * * * * * * * * * * * * * * * * * * * * * * * //

dimensions      [0 -1 0 1 0 0 0];

internalField   nonuniform List<scalar> 
5712
(
-15175.3
-22476.1
-31993.9
-56775.1
-48894.4
-97488.8
-34093.3
-97350.9
-27315.2
-65783.8
-40657.4
-71291.7
-34513.2
-55468.9
-15977.8
-21824.5
-32230.2
-31260.8
-47496.6
-42015.2
-27014
-25224.4
-46854.7
-35165.4
-14406.9
-12447.6
-21128.8
-16664.3
-32586.3
-28657.1
-65799.7
-54393.1
-42084.3
-37012
-48793.2
-40281
-17651.8
-17919.8
-95734.3
-124179
-60468.3
-74690.7
-110075
-141134
-53988.5
-63647
-80487.1
-110779
-71477
-93727.9
-52355.9
-76087.8
-9584.13
-3303.06
-12288.1
-4686.11
-27953.5
-12515.6
-46197.6
-18407
-23574.4
-10165.6
-29539.1
-10277.9
-54116.9
-18996
-70575.2
-26342.2
-32599.2
-16587.9
-36441.6
-19241.3
-22711
-13193.4
-25559.7
-14747.2
-38638.8
-22355.3
-34091.9
-18709.9
-43354.1
-22061.5
-46182.7
-22638.8
-32198.3
-16750.3
-34755
-16988.8
-45686.3
-25816.6
-48982
-26993.1
-48264.4
-26736.9
-26699.6
-45751.2
-43492
-28129.8
-22839.6
-45175.8
-55207.4
-27518.6
-30222.3
-46565.9
-59796.1
-28613.1
-32547.5
-47962.6
-10944.1
-10650.1
-3814.36
-8140.18
-30773.8
-29303.8
-14025.7
-25654.7
-32981.8
-32169.4
-22075
-38738.4
-8730.22
334.31
-19618
-36476.1
-30103.7
1434.91
-2643.9
-14931.6
-35849.2
-44036.8
-6520.41
-12560.2
-18359.8
-25369.9
-57482
-6942.95
-3190.32
-4508.04
-2527.26
-18202.9
-8687.51
-14154.9
-7581.43
-19694
-9849.94
-20293.8
-10481.2
-1565.58
-1228.87
-5537.02
-3665.42
-14332.8
-8214.99
-22676.2
-12335.8
-29472.6
-15083.3
-4085.35
-1930.14
-8587.65
-3673.39
-14390.9
-6567.95
-21822.4
-9832.57
-39741.9
-15655.3
-9447.2
-2723.53
-9449
-4178.45
-5977.34
-3012.59
-6714.88
-3702.12
-14452.2
-6877.54
-15188.9
-4531.51
-9130.06
-5439.76
-9179.1
-5771.46
-6868.22
-4461.78
-7009.4
-4805.8
-13830.8
-8752.24
-13904.7
-9125.23
-26704.4
-11041.7
-47486.7
-14388.8
-25186.5
-7382.06
-44664.3
-10596
-26281.7
-12699.8
-48009
-15070.2
-25211.9
-13412.1
-45919.3
-16964.4
-1253.93
-435.451
-122.249
-1062.06
-382.258
-115.495
-3486.37
-977.805
-193.736
-3087.5
-836.436
-161.355
-3539.92
-881.675
-228.132
-4165.07
-950.863
-226.605
-464.782
-95.8204
-24.4081
-1588.05
-301.091
-55.6453
-3099.03
-630.486
-107.556
-4570.5
-1018.25
-203.754
-5797.27
-1222.03
-209.831
-1215.45
-321.435
-67.2858
-1767.59
-488.02
-89.9257
-3137.87
-805.317
-135.138
-4495.3
-1112.66
-178.866
-6965.59
-1583.89
-226.571
-7821.04
-8127.15
-7525.42
-8400.88
-14871
-15424.9
-17225.2
-18680.4
560.03
166.646
1023.54
342.652
-532.207
-227.464
431.428
532.513
-161.082
-982.836
-4560.11
-5052.35
-1129.88
-570.569
-9765.33
-11600.9
-22774.9
-27395
134.886
2456.16
-4529.75
-5024.37
-2684.54
-2145.25
-140.482
-57.2774
-90.2267
-52.7775
-519.017
-34.245
-64.1145
40.7546
-2392.89
-276.752
-2033.05
-277.502
-3081.13
-465.794
-4201.7
-585.813
-5661.68
-4379.41
-6263.64
-4810.02
-11864.4
-8682.32
-13820.3
-9328.73
-2919.57
-2266.19
-2841.98
-2026.78
-7587.04
-5243.92
-8818.64
-5418.6
-16781.2
-10220.3
-18653.3
-10417.5
-3348.26
-2462.16
-3862.26
-2561.25
79.228
-36.4066
-775.293
-138.469
53.1024
-27.3097
-643.894
-112.726
-33.8138
-71.9747
-867.436
-160.609
-147.591
-92.2522
-902.341
-168.828
33.6068
19.0685
-14.3025
-1.35343
165.291
85.2007
-2.30207
7.97144
-42.0908
17.5122
-80.7645
-30.4037
1592.59
2911.65
500.259
258.258
23.465
3205.12
1808.81
343.327
297.771
34.3489
-4041.44
-2244.78
-1117.89
-481.337
-91.4236
2.64745
0.70188
-0.257394
0.134807
15.7295
4.71349
1.11779
0.887605
12.4146
9.97178
-8.50391
-1.03992
569.88
46.7144
528.153
137.44
25.7741
4.44792
27.0075
6.2742
-6.75745
-3.99295
-1597.74
-460.938
-723.239
-94.5469
-326.385
-49.3068
-127.678
-23.6097
-18.9118
-4.75354
-1373.86
-462.167
-1991.27
-620.731
-2968.2
-1109.81
-3921.39
-1393.11
-859.531
-265.565
-572.691
-198.869
-2239.97
-619.166
-2390.01
-672.052
-4280.61
-1445.53
-4482.76
-1556.65
-1004.34
-269.409
-1084.99
-294.598
-300.282
-100.757
-39.0696
-24.0139
-209.367
-78.0202
-35.5676
-21.3742
-339.757
-109.262
-40.6945
-28.1061
-399.668
-118.855
-69.5341
-31.9691
0.0255541
0.0236821
0.0155382
-0.0801478
-0.0023462
0.00261423
0.53901
0.231536
0.0915027
-0.210235
0.0160992
0.0168579
2.18667
0.788166
0.223249
-0.974495
0.0232658
0.0274451
-27.6974
-1.13782
-0.911799
10.8032
8.34315
2.40862
-0.302736
2.43794
0.853403
0.650973
1.24703
0.421155
-2.16667
-0.120013
0.00958261
-214.154
-46.1952
-8.75634
-23.886
-0.713664
0.468526
-13.0993
-0.437853
0.246851
-5.31122
-0.113125
0.125849
-2.85146
-0.213419
0.00731222
1.16491
0.102225
0.00695993
0.000504306
4.45567
0.475591
0.0543335
0.00630537
1.46353
0.0657446
0.0279425
0.00554326
8.28233
0.748794
0.132515
0.0192593
-5.64172
-0.542209
-0.00266093
0.00904051
0.339878
-0.0131007
0.030007
0.00636083
-7.43809
-0.586536
-0.0499756
-0.00526441
-12.1626
-1.02401
-0.0507864
-0.00064311
-18.5397
-1.80539
-0.18027
-0.0176222
-16.4008
-1.6884
-0.191983
-0.0179578
-12.7072
-1.18776
-0.09976
-0.00259997
-12.8457
-1.29724
-0.16441
-0.018676
-22.9783
-2.19133
-0.171306
-0.0111748
-19.2341
-2.00112
-0.212612
-0.0180943
-25.5609
-2.44783
-0.179973
-0.0103179
-20.7468
-2.18529
-0.232172
-0.0211076
0.374989
0.0282155
0.00356945
0.000409858
0.325652
0.0281085
0.00119295
1.33703e-05
1.18408
0.0645687
0.0141825
0.00270712
1.14254
0.0906275
0.00521352
0.000278257
-3.98146
-0.465772
-0.0458655
-0.00356329
-2.29244
-0.280875
-0.0346821
-0.00317926
-4.15689
-0.427257
-0.0367011
-0.000350432
-1.30434
-0.170398
-0.0351172
-0.0050077
-9.86718
-1.00951
-0.131074
-0.0128824
0.0753242
0.00854832
0.000477906
0.000107683
0.123497
0.01807
0.00185758
0.000168437
0.023194
-0.00362512
-0.00422528
-0.00039181
0.33352
0.04565
0.00372968
0.000281598
-0.879007
-0.105463
-0.0202143
-0.00226495
0.336251
0.0456753
0.00232376
-1.82144e-05
-2.60768
-0.270069
-0.0428445
-0.00479757
-0.201686
-0.00256804
-0.00421199
-0.000851227
-5.23405
-0.520815
-0.0777102
-0.00833092
-1.04894
-0.0776171
-0.0136979
-0.00179307
-9.32678
-0.939028
-0.120529
-0.0122272
-2.86243
-0.276944
-0.0334264
-0.00378686
-7.74238
-0.762791
-0.103167
-0.0111546
-2.23924
-0.20172
-0.0254265
-0.00289758
-10.5017
-1.0744
-0.134838
-0.0142731
-3.36224
-0.331723
-0.0382635
-0.00452326
-11.2949
-1.16564
-0.145721
-0.0163934
-3.84301
-0.376618
-0.0427435
-0.0051363
0.000190319
2.59238e-05
2.98495e-06
3.22249e-07
3.65093e-08
0.000558137
5.67027e-05
5.75353e-06
5.80088e-07
6.28588e-08
0.000410019
4.57413e-05
5.35506e-06
6.07597e-07
7.20711e-08
0.00097268
9.32249e-05
9.88803e-06
1.04678e-06
1.17938e-07
0.000256969
3.16136e-05
4.55239e-06
5.85461e-07
7.496e-08
0.000683205
8.45417e-05
1.01573e-05
1.1515e-06
1.35599e-07
-9.9869e-05
8.76982e-06
2.31378e-06
3.39856e-07
4.57577e-08
-0.000247982
-2.27986e-05
-1.51254e-06
-6.0564e-08
2.94448e-09
-0.000497631
-8.64542e-06
1.88566e-06
3.87928e-07
5.8398e-08
-0.000491047
-2.5901e-05
-9.18714e-07
2.89903e-08
1.30039e-08
0.000212124
4.56757e-05
6.6135e-06
8.11441e-07
9.95632e-08
-0.000291602
-7.63875e-06
6.23574e-07
1.57612e-07
2.4497e-08
-0.000785126
-5.29632e-05
-2.95262e-06
-9.9817e-08
6.63261e-09
-0.00052168
-3.53e-05
-2.06738e-06
-8.80794e-08
7.29814e-10
-0.00097006
-8.10096e-05
-6.2073e-06
-4.34248e-07
-2.84186e-08
-0.000674919
-5.09103e-05
-3.73408e-06
-2.6046e-07
-1.77824e-08
9.6028e-05
1.69749e-05
2.19511e-06
2.4957e-07
2.89342e-08
0.000142001
2.0473e-05
2.44114e-06
2.64342e-07
2.94073e-08
0.000332667
4.55486e-05
5.51392e-06
6.15335e-07
7.09894e-08
0.000429299
5.58818e-05
6.36083e-06
6.747e-07
7.44528e-08
-5.01057e-05
2.04446e-05
3.88034e-06
5.17254e-07
6.59351e-08
0.000537369
6.9518e-05
7.87465e-06
8.38616e-07
9.34915e-08
0.000359823
5.60333e-05
6.96502e-06
7.88189e-07
9.20637e-08
0.000501831
5.74414e-05
6.20095e-06
6.47055e-07
7.14735e-08
0.000149595
2.825e-05
3.64304e-06
4.1804e-07
4.91382e-08
-129.643
-485.856
-266.71
-1357.06
-456.182
-2230.63
-480.758
-2979.27
-768.673
-3335.91
-2197.51
-5169.11
-1557.97
-3815.33
-2196.01
-5546.08
-2410.82
-5514.73
-5413.64
-4131.97
-3753.41
-3508.52
-3304.15
-1824.71
-1632.73
-1389.08
-1317.43
-1186.5
-16838.4
-12789.7
-11620.1
-10862.2
-10228.4
-5225.35
-4547.06
-4139.2
-3805.42
-3516.28
-28943.3
-21937.2
-19927.7
-18628.4
-17533.6
-9011.35
-7786.42
-7023.81
-6440
-5967.34
-40366.8
-30469.3
-27668
-25862.1
-24342.9
-12289.8
-10534.8
-9474.07
-8669.69
-8026.46
-53197
-40019.6
-36357.6
-34025.6
-32092.8
-15888.3
-13622.4
-12291
-11302.5
-10524.1
-68728.1
-52303.3
-47516.1
-44450.9
-41961
-20798
-17747.1
-16046.2
-14796.8
-13758.2
-62080.8
-47018.9
-42700.1
-39949.2
-37720.6
-18196.1
-15524.8
-14043.6
-12974.7
-12113.2
-72017.9
-54977
-49945.2
-46710.4
-44063.7
-22110
-18861.5
-17080.5
-15777.5
-14675.8
-75141.4
-57208.5
-51984.1
-48622.5
-45861.6
-22997.9
-19690
-17843.6
-16324.8
-15173.6
-1539.36
-13711.5
-11366.8
-2624.07
1633.97
3037.48
5586.46
10321
375.029
9048.42
-8199.4
-3707.31
-1737.03
2897.36
9585.75
18116.7
13930.1
21276.4
5796.05
8787.42
-2114.08
-820.927
-4.0293
-0.60725
-0.262549
-0.161087
-0.757356
-1223.49
-448.505
-295.172
-149.847
-33.4809
-20.6016
-62.8029
-11.0658
-6.37127
-4.97496
-2.3646
-1808.84
-282.451
-9.52569
-22.5682
-84.8658
-26.3262
-18.9421
-6.7591
-1.21683
-1.26898
-5.34547
-5.90466
-1935.96
-598.588
-570.061
-202.277
-87.2909
-212.568
-11.3101
-2.62372
-17.8012
-867.626
-399.826
-161.493
-54.3532
-15.268
-329.07
-138.627
-54.7877
-17.9556
-4.62839
-2.38311
-1.20905
-0.520063
-0.189587
-0.045744
-0.375691
-0.197899
-0.0879837
-0.0331042
-0.00811561
-0.163434
-0.086279
-0.0383732
-0.0144619
-0.00355047
-0.103904
-0.0567561
-0.0260519
-0.0100981
-0.00252018
-0.468265
-0.245709
-0.108698
-0.0407443
-0.00996402
-432.9
-164.874
-61.5845
-20.4785
-6.54537
-113.065
-34.5455
-10.1847
-3.23585
-0.844181
-110.61
-41.6047
-15.2496
-4.90343
-1.3508
-39.7568
-12.3119
-3.69449
-1.03923
-0.241567
-8.62068
-2.68714
-0.790649
-0.20773
-0.0430451
-9.96296
-4.25957
-1.58151
-0.513418
-0.118876
-26.0407
-10.1881
-3.6749
-1.17683
-0.281706
-4.42793
-1.65906
-0.572371
-0.176649
-0.039875
-3.35198
-1.52297
-0.593801
-0.200472
-0.0466744
-2.49294
-1.08664
-0.408636
-0.134102
-0.0306343
-1.28204
-0.594716
-0.23565
-0.0807008
-0.018795
-706.898
-286.86
-113.049
-36.8825
-11.2753
-121.167
-51.5799
-20.015
-6.52909
-1.73603
-5.04615
-2.33981
-0.932022
-0.318363
-0.0755761
-12.1468
-5.74589
-2.33176
-0.806514
-0.193456
-43.0328
-19.808
-7.87428
-2.65957
-0.650423
-14.3939
-6.90303
-2.8347
-0.98906
-0.237021
-10.6437
-5.20897
-2.17425
-0.768799
-0.183943
-3.9019
-1.93567
-0.816104
-0.292458
-0.070097
-0.703536
-0.346378
-0.144588
-0.0515594
-0.0122862
-0.759868
-0.38762
-0.167257
-0.0613345
-0.0148429
-2.97191
-1.42324
-0.581473
-0.20326
-0.048249
-3.36145
-1.6481
-0.687911
-0.244592
-0.0585504
-789.011
-346.261
-139.985
-44.9366
-12.7817
-250.345
-107.374
-42.5254
-13.9413
-3.74349
-251.98
-115.926
-44.7862
-14.3571
-3.62804
-98.6925
-44.3769
-17.7786
-5.95648
-1.48752
-45.9291
-21.7211
-8.80399
-3.00841
-0.724933
-102.868
-46.2526
-18.4652
-6.1547
-1.51517
-6.35943
-3.09741
-1.28615
-0.453699
-0.108317
-1.58929
-0.818795
-0.356351
-0.13155
-0.0318938
-10.0727
-4.93029
-2.05645
-0.728836
-0.174263
-13389.1
-28312.7
-27050.9
-80423.4
-23440.8
-92441.4
-13514
-33014.3
-24149.1
-18557.1
-46411.6
-37938.2
-20434.3
-15647.4
-45254.1
-32059.5
-10939.5
-9106.75
-22970.8
-18079.7
-24341.4
-19786.5
-70661.9
-58375.3
-39124.9
-24618
-44026.2
-24439.5
-4994.16
-14870.7
-97268.2
-124801
-59309.3
-74519.3
-111124
-141570
-53043.2
-63458.8
-81708.3
-111429
-70109.5
-93587.8
-54214.3
-76931.5
-6920.79
-2162.64
-12798
-4726.36
-22496.2
-11152.7
-48457.1
-19042.1
-12406.6
-7278.43
-26494.8
-9290.73
-53837.9
-18827
-70720.3
-26373.8
-23059.4
-13025.1
-33186.6
-17730
-15053.7
-9901.14
-22914.4
-13443.2
-35900.4
-21025.4
-25900.2
-15715.2
-42282.1
-21511.4
-45952.6
-22511.2
-31303.7
-16282
-34547.5
-16880.3
-44828.6
-25318.4
-48809.7
-26876.2
-46679.4
-26296.6
-25805.7
-45469.5
-38596.9
-26803
-20874.6
-44560.9
-54795.8
-27399.6
-29881.8
-46452.4
-59746.5
-28598.4
-32468.6
-47936.1
-3458.94
-2998.12
-1371.45
-5534.2
-14440.7
-14159.6
-10894.1
-22355.9
-11453.8
-12307.3
-18056
-34494.2
-12927.4
-6320.2
-18374.8
-28300.3
-28079.7
-3429.41
-6807.89
-12359.4
-26559.2
-41789.5
-9063.83
-12871.3
-16042.7
-21847.8
-56272
-3327.72
-1630.06
-2810.77
-1777.33
-10374.7
-5184.97
-11648.4
-6356.16
-6837.44
-3313.23
-17034.4
-8797.62
-3770.95
-2084.11
-5978.39
-3282.38
-10329.7
-5283.63
-15792.6
-8454.49
-27643.4
-14166
-5299.09
-2395.23
-8325.84
-3354.4
-12327.4
-5345.48
-19180.8
-8353.95
-38853.9
-15074.8
-8582.44
-2483.7
-8892.03
-4010.3
-5679.82
-3008.93
-6310.09
-3594.51
-13883.5
-6681.36
-13980.5
-4104.67
-8903.48
-5368.57
-9125.9
-5754.81
-6677.17
-4396.25
-6962.44
-4787.75
-13619.8
-8686.81
-13857.1
-9111.62
-26308.7
-10892.2
-47354.5
-14328.4
-24116.2
-6974.03
-44293.4
-10438.1
-26146.9
-12653.1
-47965.9
-15053.4
-25181
-13403
-45911.2
-16961.9
-887.004
-577.361
-938.945
-736.116
-2566.62
-1403.2
-3081.07
-1914.6
-1378.19
-959.713
-4118.3
-2252.09
-1023.68
-362.301
-1852.34
-643.705
-2603.9
-995.239
-4225.18
-1821.13
-7160.91
-2896.83
-1447.56
-347.566
-1651.76
-320.109
-2789.94
-514.222
-4104.07
-686.98
-6637.8
-732.274
-4878.15
-5647.59
-5342.27
-8195.6
-10905.3
-10059.8
-15651.4
-17353.7
-612.035
-196.204
-309.877
-69.4827
-2040.19
-722.722
-1661.6
-233.214
-1078.84
-1275.07
-4565.22
-3642.78
-944.033
-858.936
-9541.68
-11534.5
-22133.4
-27227.4
41.4538
2424.21
-4516.13
-5020.67
-2656.58
-2137.94
-220.609
-83.1741
-233.231
-86.9284
-553.578
-72.1671
-298.036
-0.860038
-1953.7
-295.341
-2149.09
-315.269
-3093.12
-481.931
-4196.72
-590.994
-3555.44
-3495.51
-5711.46
-4430.78
-7396.37
-6573.57
-12344.6
-8498.12
-2748.52
-2128.7
-1910.28
-1739.88
-7370.04
-5097.57
-8758.68
-5382.17
-16240.9
-9914.09
-18516.3
-10344.6
-3290.12
-2407.57
-3844.76
-2547.25
-33.382
-57.6705
-762.316
-142.175
-38.9166
-48.4004
-632.498
-120.3
-87.4679
-84.3058
-861.609
-162.615
-161.674
-96.2496
-900.672
-169.445
-157.057
-99.3077
-57.37
-30.9716
-406.085
-248.112
-57.928
-27.4257
-1372.46
-892.039
-187.595
-125.152
-1622.04
-2605.29
-1142.28
39.575
-15.8836
-599.109
-826.325
-1119.24
185.872
6.39638
-6313
-3406.23
-1657.02
-617.336
-119.772
-51.182
-14.9973
-14.6583
-5.08472
-135.788
-45.3829
-17.8019
-7.74283
-476.071
-192.586
-71.2424
-34.0195
-1512.19
-897.585
-768.54
-454.02
-707.913
-315.247
-60.1661
-33.666
-29.2406
-19.3221
-2892.07
-1048.08
-1468.97
-447.534
-651.764
-201.267
-221.439
-66.9218
-33.5755
-12.8813
-1444.4
-552.871
-1907.21
-616.488
-2982.79
-1241.78
-3708.46
-1366.87
-839.503
-267.824
-627.5
-242.138
-2183.24
-608.046
-2373.85
-667.922
-4159.26
-1416.35
-4450.78
-1547.21
-985.294
-266.607
-1079.04
-293.308
-301.054
-102.877
-41.5852
-25.2093
-238.031
-93.5905
-42.6392
-25.2387
-336.724
-109.1
-41.5745
-28.4483
-398.367
-118.609
-69.6616
-32.017
-3.81962
-1.64825
-2.08611
-1.16731
-17.6532
-8.7408
-4.30811
-2.21049
-72.3794
-28.2749
-11.7584
-2.46134
-467.525
-143.694
-255.054
-66.1827
-125.313
-37.731
-19.5057
-6.02407
-9.02841
-2.02397
-428.334
-79.9098
-146.572
-23.773
-67.0178
-12.8729
-21.1374
-3.39006
-6.13787
-0.0540248
-0.873082
-0.100913
-0.0144605
-0.00157747
1.81238
0.20507
0.0294894
0.00433733
-2.91775
-0.387748
-0.0123569
0.0023979
3.36441
0.219042
0.0887667
0.0163153
-10.3743
-1.06967
-0.0476934
0.00647693
-4.92807
-0.61901
-0.0314341
0.00048741
-9.73217
-0.871151
-0.0833537
-0.00884727
-13.0151
-1.13419
-0.0626337
-0.00179649
-21.4045
-2.16452
-0.226118
-0.0234964
-17.4398
-1.8445
-0.215354
-0.0209892
-16.2875
-1.62301
-0.148635
-0.0074399
-14.4959
-1.52023
-0.195928
-0.022694
-24.7248
-2.41748
-0.196808
-0.0138574
-19.83
-2.09467
-0.226406
-0.0198789
-26.1634
-2.52802
-0.188755
-0.011217
-20.9414
-2.21648
-0.236779
-0.0217175
-1.00451
-0.117775
-0.011912
-0.0010935
-0.505836
-0.0620416
-0.0111486
-0.00139532
-2.27265
-0.29731
-0.0208851
-0.000386045
-1.01168
-0.144303
-0.0255944
-0.00316213
-9.20745
-0.981735
-0.0947643
-0.00807009
-6.79443
-0.711803
-0.0831922
-0.00815918
-9.46528
-0.929123
-0.0866731
-0.00491031
-6.07904
-0.588369
-0.079983
-0.00900023
-13.3048
-1.36997
-0.172522
-0.0166228
-0.326393
-0.0374879
-0.00539218
-0.000570917
0.00799542
0.00157343
-0.000291904
-0.000108964
-1.27384
-0.146911
-0.0230445
-0.00255394
-0.17478
-0.0183342
-0.0042228
-0.0006561
-3.73065
-0.373451
-0.0510842
-0.00564504
-1.18219
-0.109729
-0.0132759
-0.00166203
-6.29991
-0.613182
-0.0796265
-0.00850729
-2.47903
-0.229034
-0.0252672
-0.00292568
-7.77862
-0.784705
-0.109454
-0.011971
-2.84234
-0.270214
-0.0329331
-0.00377455
-9.89714
-1.02841
-0.135106
-0.0142544
-3.18069
-0.324783
-0.0398156
-0.00459614
-9.13858
-0.939944
-0.127552
-0.0142831
-3.0912
-0.310089
-0.0377829
-0.00430345
-10.7243
-1.11531
-0.14227
-0.0153852
-3.46218
-0.34977
-0.0410357
-0.00491063
-11.3543
-1.17741
-0.147959
-0.0167471
-3.86397
-0.381017
-0.0434923
-0.0052485
2.07634e-06
5.37936e-06
7.78265e-07
9.27889e-08
1.12767e-08
0.000322357
2.84404e-05
2.58035e-06
2.41465e-07
2.49493e-08
2.26829e-05
6.46269e-07
4.4284e-07
9.59554e-08
1.57027e-08
0.000470465
3.22909e-05
3.07533e-06
3.21666e-07
3.65615e-08
-0.000206452
-2.35224e-05
-1.43705e-06
-3.54446e-08
6.85194e-09
-3.7844e-06
5.11149e-06
1.39922e-06
2.23312e-07
3.13585e-08
-0.000434828
-2.84401e-05
-1.75362e-06
-9.23008e-08
-3.01288e-09
-0.000390716
-3.97312e-05
-3.41472e-06
-2.65904e-07
-2.04941e-08
-0.00102084
-6.32886e-05
-3.85979e-06
-2.04922e-07
-6.98258e-09
-0.000709528
-4.82807e-05
-3.21693e-06
-2.04248e-07
-1.23778e-08
-0.000350522
-1.68779e-05
-1.38046e-07
1.04255e-07
2.08472e-08
-0.000527912
-3.13877e-05
-1.81763e-06
-9.09177e-08
-2.51772e-09
-0.0010811
-8.48296e-05
-6.29655e-06
-4.42801e-07
-3.09293e-08
-0.000666806
-5.13946e-05
-3.78642e-06
-2.6665e-07
-1.89292e-08
-0.00108331
-9.39399e-05
-7.60679e-06
-5.80287e-07
-4.46702e-08
-0.000722067
-5.62073e-05
-4.30676e-06
-3.2022e-07
-2.44679e-08
-5.63359e-05
4.62121e-07
4.50974e-07
7.04948e-08
9.39243e-09
2.0227e-05
7.14189e-06
1.02505e-06
1.17987e-07
1.34361e-08
-7.43588e-06
7.00166e-06
1.36286e-06
1.84758e-07
2.36054e-08
0.00013453
2.30537e-05
2.82414e-06
3.06084e-07
3.38526e-08
-0.000493411
-2.74498e-05
-1.16256e-06
1.18007e-09
9.88307e-09
0.000142225
2.59156e-05
3.16827e-06
3.46224e-07
3.89572e-08
-9.9436e-05
6.13902e-06
1.59474e-06
2.25262e-07
2.93873e-08
0.00021499
2.53687e-05
2.70756e-06
2.78662e-07
3.03494e-08
-9.81613e-05
1.76841e-06
7.88629e-07
1.17586e-07
1.52606e-08
19.7657
-388.139
63.9181
-1137.77
-86.5893
-1987.97
-181.948
-2774.78
-594.428
-3191.39
-2178.08
-5149.47
-1488.64
-3759.04
-2191.76
-5541.15
-2410.3
-5514.04
-5409.06
-4130.23
-3751.73
-3507.04
-3302.85
-1808.84
-1630.62
-1387.05
-1316.29
-1185.75
-16835
-12789.6
-11619.5
-10861.9
-10228.3
-5192.89
-4544.85
-4139.08
-3806.87
-3518.53
-28946.3
-21939.9
-19929.3
-18630.3
-17535.9
-8972.69
-7783.17
-7023.29
-6440.79
-5968.92
-40368.7
-30469.8
-27667.7
-25862.3
-24343.6
-12255.5
-10531.8
-9473.86
-8670.05
-8026.66
-53201.1
-40021.2
-36358.5
-34027.1
-32094.6
-15864.3
-13620.1
-12290.9
-11302.9
-10524.5
-68729.2
-52303.3
-47516.1
-44451.1
-41961.2
-20794.5
-17746.9
-16046.5
-14797
-13757.8
-62082.5
-47019.3
-42700.2
-39949.8
-37721.5
-18185.3
-15524.1
-14044
-12974.8
-12113.5
-72017.7
-54976.6
-49944.8
-46710.2
-44063.4
-22109.1
-18861.2
-17080.2
-15777.3
-14675.7
-75142.8
-57209.2
-51984.7
-48623.2
-45862.2
-22998
-19690.3
-17843.8
-16324.8
-15173.7
-1538.76
-13636.3
-11090.7
-2696.21
-1936.39
-1154.14
-4143.36
-3206.67
-10286.7
-10984
-5401.83
-4320.8
-7.49735e-05
-0.000347608
-0.0017343
-0.008487
-0.0414879
-0.200894
-0.000113303
-0.000749533
-0.00412449
-0.0195052
-0.0817251
-0.305695
-2.65683e-05
-7.62508e-06
-0.00014259
-5.34369e-05
-0.000798965
-0.000357153
-0.00426087
-0.0021595
-0.0206896
-0.00951867
-0.108342
-0.0408541
-0.890802
-3.49372
-12.3756
-60.1094
-171.102
-277.407
-1.01096
-2.93889
-7.56666
-18.213
-41.5025
-62.6446
-5.26683e-05
-3.18253e-05
-1.62501e-05
-6.96213e-06
-1.85791e-06
-0.00024078
-0.000143012
-7.16629e-05
-3.01575e-05
-7.9505e-06
-0.00118348
-0.000690576
-0.000339568
-0.00014037
-3.65615e-05
-0.00568815
-0.00325144
-0.00156495
-0.000634079
-0.000162946
-0.0271962
-0.0151734
-0.00712696
-0.00282272
-0.000714507
-0.12819
-0.0695619
-0.0318036
-0.0122847
-0.00305957
-7.88441e-05
-4.70905e-05
-2.37395e-05
-1.00474e-05
-2.65913e-06
-0.000513953
-0.000301565
-0.000149141
-6.19838e-05
-1.62029e-05
-0.00278758
-0.00160823
-0.000781336
-0.00031933
-8.25342e-05
-0.0129737
-0.00735053
-0.00350519
-0.00140779
-0.00035962
-0.0533929
-0.029666
-0.0138726
-0.00547133
-0.00138089
-0.19568
-0.106442
-0.0487624
-0.0188703
-0.00470421
-1.88318e-05
-1.15074e-05
-5.94954e-06
-2.57981e-06
-6.94134e-07
-5.43246e-06
-3.34078e-06
-1.7397e-06
-7.59512e-07
-2.0525e-07
-9.95132e-05
-5.96555e-05
-3.02004e-05
-1.2835e-05
-3.40669e-06
-3.7528e-05
-2.2667e-05
-1.15694e-05
-4.95563e-06
-1.32233e-06
-0.000548902
-0.000322901
-0.000160177
-6.67737e-05
-1.74933e-05
-0.000247373
-0.000146878
-7.35683e-05
-3.0949e-05
-8.15857e-06
-0.00287732
-0.00165863
-0.000805254
-0.000328929
-8.49945e-05
-0.0014751
-0.000860901
-0.000423137
-0.000174813
-4.55157e-05
-0.0137051
-0.00772729
-0.00366609
-0.00146534
-0.000373125
-0.00641785
-0.00368483
-0.00177885
-0.000722404
-0.000185887
-0.0700754
-0.0384843
-0.0177796
-0.00693173
-0.00173599
-0.0270864
-0.0152267
-0.00718588
-0.00285674
-0.000724497
-0.550655
-0.289914
-0.128877
-0.0484983
-0.0118879
-2.08152
-1.06178
-0.459008
-0.168263
-0.0406704
-7.06306
-3.4891
-1.46859
-0.524674
-0.125572
-32.1722
-15.3113
-6.26673
-2.17332
-0.520968
-84.3281
-38.6201
-15.448
-5.2191
-1.27825
-132.546
-60.2351
-23.924
-8.02494
-1.97629
-0.632046
-0.335975
-0.150642
-0.0571566
-0.0140742
-1.7871
-0.92642
-0.406197
-0.150988
-0.0367415
-4.44928
-2.24399
-0.961319
-0.349711
-0.0842073
-10.2676
-5.02516
-2.10152
-0.746936
-0.178516
-22.0166
-10.3877
-4.23652
-1.4689
-0.351799
-32.3114
-15.0466
-6.0784
-2.08776
-0.500717
-7.47557e-05
-0.000346176
-0.00172679
-0.00844753
-0.0412784
-0.199799
-0.000112898
-0.000746417
-0.00410707
-0.0194223
-0.0813665
-0.304329
-2.64859e-05
-7.60783e-06
-0.000141948
-5.34194e-05
-0.00079503
-0.000359204
-0.00423433
-0.00218834
-0.0205533
-0.00995948
-0.107466
-0.0423559
-0.885696
-3.4725
-12.2959
-59.6857
-170.088
-276.891
-1.00635
-2.92535
-7.53101
-18.123
-41.3195
-62.553
-5.25222e-05
-3.17453e-05
-1.62165e-05
-6.95181e-06
-1.85604e-06
-0.000239837
-0.00014251
-7.14622e-05
-3.01015e-05
-7.94193e-06
-0.00117868
-0.000688136
-0.000338668
-0.000140162
-3.65431e-05
-0.00566388
-0.00323985
-0.00156118
-0.000633494
-0.000163
-0.0270735
-0.0151193
-0.00711223
-0.00282232
-0.000715569
-0.127578
-0.0693137
-0.0317507
-0.0122941
-0.00306825
-7.85737e-05
-4.6944e-05
-2.36789e-05
-1.00294e-05
-2.65601e-06
-0.000511911
-0.000300486
-0.000148713
-6.18661e-05
-1.61854e-05
-0.00277638
-0.00160248
-0.000779166
-0.000318792
-8.2473e-05
-0.0129215
-0.00732463
-0.00349598
-0.00140583
-0.000359505
-0.0531718
-0.0295594
-0.0138366
-0.00546472
-0.00138089
-0.194856
-0.106057
-0.0486395
-0.0188518
-0.00470602
-1.87766e-05
-1.14773e-05
-5.93689e-06
-2.576e-06
-6.93526e-07
-5.42144e-06
-3.33548e-06
-1.73802e-06
-7.59392e-07
-2.0546e-07
-9.90961e-05
-5.94382e-05
-3.01166e-05
-1.28135e-05
-3.40414e-06
-3.75326e-05
-2.26872e-05
-1.1593e-05
-4.97257e-06
-1.32846e-06
-0.00054646
-0.000321719
-0.000159783
-6.67085e-05
-1.74971e-05
-0.000248967
-0.000147996
-7.42525e-05
-3.12984e-05
-8.26336e-06
-0.00286172
-0.00165172
-0.000803356
-0.000328868
-8.51283e-05
-0.00149646
-0.000875017
-0.000431208
-0.000178682
-4.66295e-05
-0.0136345
-0.00770314
-0.00366478
-0.00146954
-0.000375189
-0.00672679
-0.00387349
-0.00187732
-0.000765705
-0.000197653
-0.0696355
-0.0383472
-0.0177821
-0.00696224
-0.00174946
-0.0281875
-0.0159288
-0.00756622
-0.0030285
-0.000771924
-0.547916
-0.288879
-0.128708
-0.0485752
-0.0119364
-2.07051
-1.05779
-0.458447
-0.168617
-0.0408746
-7.02265
-3.47456
-1.46649
-0.525857
-0.126278
-31.9616
-15.2332
-6.25254
-2.17711
-0.523886
-83.758
-38.3598
-15.3643
-5.20481
-1.2784
-132.245
-60.0895
-23.8736
-8.01427
-1.97533
-0.629324
-0.334736
-0.150265
-0.05711
-0.0140841
-1.77928
-0.922957
-0.405195
-0.150892
-0.0367803
-4.42924
-2.23537
-0.958956
-0.349561
-0.0843329
-10.218
-5.00399
-2.09573
-0.746545
-0.178816
-21.9097
-10.3373
-4.21941
-1.46543
-0.351619
-32.2564
-15.0195
-6.06867
-2.08549
-0.500444
-2108.31
-819.066
-3.99943
-0.603053
-0.282449
-0.169321
-0.749242
-1218.44
-567.134
-305.556
-186.282
-20.9151
-71.3532
-7.51575
-8.70833
-3.34748
-1775.42
-279.952
-9.71562
-22.5103
-84.3225
-26.1473
-18.7842
-6.73242
-1.43046
-1.34324
-5.62706
-5.9403
-1915.27
-593.764
-562
-200.03
-86.441
-210.109
-11.2367
-2.61779
-17.6976
-864.216
-398.285
-160.975
-54.2635
-15.2757
-328.059
-138.181
-54.6451
-17.9314
-4.62804
-2.37099
-1.20731
-0.521995
-0.191439
-0.0464171
-0.373922
-0.197638
-0.0882808
-0.0333955
-0.00822215
-0.177302
-0.0946189
-0.0426191
-0.0162685
-0.00403011
-0.109678
-0.0602659
-0.0278686
-0.0108874
-0.002733
-0.465611
-0.246039
-0.109795
-0.0415335
-0.0102258
-470.226
-190.954
-75.0223
-25.5666
-7.88123
-213.423
-86.7992
-34.1554
-11.3984
-2.82352
-126.18
-52.1502
-20.5211
-6.82279
-1.81345
-68.0078
-26.8009
-10.3929
-3.29821
-0.72976
-10.7455
-4.93792
-1.96949
-0.672163
-0.157601
-32.7977
-14.1786
-5.56755
-1.86248
-0.437981
-4.16136
-2.00155
-0.82543
-0.291145
-0.0691347
-4.79435
-2.29511
-0.942569
-0.331207
-0.078422
-1.92064
-0.945334
-0.396612
-0.14218
-0.0339386
-702.643
-290.513
-116.81
-38.9156
-11.9753
-122.787
-53.5897
-21.3268
-7.11897
-1.9003
-5.27982
-2.52425
-1.03801
-0.364157
-0.0875398
-12.2712
-5.8996
-2.43902
-0.858913
-0.208327
-43.381
-20.3206
-8.23846
-2.83514
-0.700441
-14.4034
-6.97549
-2.89838
-1.02352
-0.24736
-10.5868
-5.20524
-2.18687
-0.779147
-0.187565
-3.9118
-1.95787
-0.834486
-0.302442
-0.073086
-0.845339
-0.427303
-0.183465
-0.0670994
-0.0162384
-0.811398
-0.418753
-0.183197
-0.0681116
-0.0166425
-3.197
-1.57117
-0.659785
-0.236324
-0.0568651
-3.41748
-1.69857
-0.720291
-0.260121
-0.062918
-778.144
-341.945
-138.733
-44.8526
-12.8597
-247.882
-106.352
-42.23
-13.9107
-3.7511
-251.332
-116.915
-45.8721
-14.9613
-3.82519
-97.8945
-44.2451
-17.8603
-6.03923
-1.51911
-45.688
-21.7489
-8.89306
-3.06926
-0.745182
-102.202
-46.3031
-18.6744
-6.29773
-1.56376
-6.35829
-3.12409
-1.31149
-0.468029
-0.112688
-1.59362
-0.826742
-0.36294
-0.135213
-0.0330054
-10.0761
-4.97366
-2.09617
-0.751005
-0.180987
-0.106053
-0.450191
-1.31053
-3.26321
-7.04273
-13.5592
-5318.66
-13185.8
-10662.2
-4405.32
-15490.3
-13450.4
-12333.1
-11145.4
-5283.11
-3635.29
-12544.9
-6876.84
-19025
-17845.5
-1354.92
-3826.03
-9602.54
-7440.98
-3060.23
-11335.5
-9534.5
-8668.07
-7684.75
-3924.29
-1786.46
-9800.71
-3085.45
-12752.4
-10874.2
1604.01
-2070
-5292.34
-3777.47
-1537.17
-6373.89
-4378.83
-4537.51
-3843.21
-2281.63
-1741.34
-5412.52
-3455.26
-7209.49
-4205.68
947.914
-905.246
-2411.89
-1527.08
-614.319
-2807.43
-1526.82
-1882.65
-1518.73
-1163.35
-1242.17
-2815.44
-2448.09
-3589.85
-1434.09
291.976
-374.855
-1031.64
-573.172
-230.189
-985.763
-387.869
-713.818
-551.082
-540.943
-957.753
-1218.11
-1539.76
-1459.73
-319.538
-223.747
-144.868
-382.078
-195.506
-78.6178
-347.22
-197.227
-237.315
-199.431
-207.037
-548.722
-442.449
-874.234
-814.518
-412.491
-554.072
-1188.89
-2734.68
-5968.2
-2498.59
-3594.78
-4504.16
-7280.57
-7548.87
-454.874
-124.046
-1586.19
-409.176
-931.395
-2864.52
-681.618
-917.064
-2110.84
-4369.97
-1825.13
-2727.34
-3336.35
-5335.45
-5214.13
-345.731
-46.8435
-1260.21
-211.329
-427.145
-2078.81
-119.755
-521.83
-1199.6
-2313.21
-961.933
-1567.04
-1726.93
-2865.28
-2733.19
-184.538
-22.9417
-637.753
-107.561
-260.842
-860.197
18.0249
-214.683
-515.097
-922.51
-382.392
-670.603
-657.076
-1190.4
-1086.28
-71.8526
-2.99629
-264.393
-31.6193
-95.805
-312.414
41.6723
-77.0791
-192.23
-331.44
-137.457
-213.57
-185.701
-437.591
-381.551
-22.2833
-3.91933
-84.1414
-13.9459
-16.0181
-77.7724
18.1512
-22.9839
-54.0135
-104.12
-43.1937
-57.4825
-69.5361
-135.191
-131.839
-6.46031
-3.03331
-20.8936
-6.00392
-7.95984
-39.4764
-8.1181
13815.3
20190.7
32084.4
57037.2
48941.4
97431.7
34105
97345.6
27335.4
65784.9
40738.7
71284
34606.7
55776.4
13685.6
18527.2
32246.3
31255.3
47474.1
41998.1
27015.9
25217.8
46846.1
35156.4
13302
11578.5
19241.5
15202.5
32610.9
28602
66022.9
54541.9
41993.4
37004.3
48750.9
40262.4
17639.8
17835.1
95745.9
124190
60464.3
74691.3
110082
141143
53985.6
63646.2
80498.4
110792
71466.8
93729.8
52381.9
76105.9
9062.34
3188.81
11287
4354.06
27846
12456
46242.7
18416.3
23545.6
10150.4
29482.2
10254.2
54117.7
18994.8
70583
26344.8
32587.5
16581.3
36428.8
19235
22702.7
13188.4
25552
14742.8
38621.1
22347
34078.1
18701.3
43347.5
22057.3
46179.2
22635.7
32193.7
16747.3
34751.8
16986.3
45678.8
25811.5
48979.3
26989.7
48241.2
26728.5
26691
45747.8
43473.2
28121.9
22830.1
45171.7
55200.6
27516.2
30217.5
46564
59795.8
28613.2
32544.6
47961.4
10325.2
9940.59
3695.27
7677.02
30597.8
29160.2
13929.3
25511.5
32951.2
32138.9
22059.2
38712.4
8726.97
-334.291
19611.3
36459.7
30095.6
-1434.34
2643.07
14927.2
35833.1
44026
6517.94
12555.3
18351.9
25359
57476.7
6305.62
2853.73
4020.7
2288.18
18291.3
8744.52
14327.8
7652.99
19671.8
9844.67
20281.1
10479.8
1565.05
1228.43
5534.82
3663.84
14326.8
8211.21
22661.9
12329
29465.3
15080.8
4083.8
1929.43
8584.32
3671.9
14385.3
6565.31
21815.1
9829.15
39738.3
15653.6
9443.64
2722.42
9445.97
4177.44
5975.04
3011.58
6712.72
3701.22
14448.5
6876.42
15184.2
4530.02
9128.08
5439.1
9177.64
5771.01
6866.71
4461.11
7008.19
4805.28
13828.6
8751.61
13903.1
9124.84
26701.4
11040.8