/*--------------------------------*- C++ -*----------------------------------*\
  =========                 |
  \\      /  F ield         | OpenFOAM: The Open Source CFD Toolbox
   \\    /   O peration     | Website:  https://openfoam.org
    \\  /    A nd           | Version:  11
     \\/     M anipulation  |
\*---------------------------------------------------------------------------*/
FoamFile
{
    format      ascii;
    class       volScalarField;
    location    "0.1";
    object      T;
}
// * * * * * * * * * * * * * * * * * * * * * * * * * * * * * * * * * * * * * //

dimensions      [0 0 0 1 0 0 0];

internalField   nonuniform List<scalar> 
5712
(
461.509
516.565
439.379
501.481
413.635
483.592
382.036
453.143
385.454
442.519
416.102
478.218
438.049
497.304
454.179
510.303
391.056
352.81
445.6
378.878
360.179
326.866
407.47
345.508
474.022
490.588
523.924
533.023
448.715
466.345
507.984
519.627
461.605
413.742
407.219
378.476
435.196
483.32
499.924
503.052
406.935
420.157
462.582
463.487
367.882
377.122
507.516
517.586
440.744
459.963
528.147
539.868
508.509
546.369
544.263
561.625
485.395
536.22
532.275
556.21
443.543
515.278
484.842
536.906
519.071
551.239
533.175
556.749
328.179
310.799
341.866
313.715
307.648
296.584
317.322
298.265
375.393
339.414
358.245
334.207
353.748
315.603
357.554
315.43
325.999
299.396
328.436
299.135
389.65
342.58
394.673
342.728
421.876
508.294
387.132
476.177
402.092
494.392
377.639
464.812
437.635
516.745
392.377
482.478
443.607
520.136
393.157
485.357
482.46
437.476
531.393
495.569
451.557
410.381
517.432
478.187
410.753
377.717
494.17
453.991
306.81
289.701
335.445
377.294
467.882
286.135
300.882
325.514
359.206
433.773
289.446
303.337
326.311
365.212
443.327
360.15
314.833
368.598
320.503
351.36
311.904
367.363
319.702
339.075
306.872
364.981
318.955
280.555
276.837
291.587
282.976
309.311
292.798
332.575
305.344
365.409
321.416
282.334
277.609
292.882
284.435
310.203
294.813
336.616
309.372
368.874
326.656
295.082
287.639
294.084
287.409
284.595
278.247
284.561
278.397
309.98
299.611
312.234
300.329
292.824
287.192
292.532
287.098
284.186
278.422
284.01
278.36
307.466
298.846
306.953
298.62
336.11
317.203
365.131
336.599
339.226
318.001
369.041
337.28
332.854
315.874
362.398
335.376
330.716
314.605
359.302
333.587
287.56
277.195
274.265
289.443
277.607
274.376
287.198
277.033
274.164
289.316
277.472
274.264
285.069
276.295
273.901
289.062
277.167
274.09
274.379
273.386
273.101
276.695
274.005
273.254
280.331
274.92
273.47
284.722
276.019
273.74
290.003
277.159
273.967
274.749
273.471
273.107
277.879
274.346
273.312
282.081
275.405
273.532
287.435
276.625
273.765
292.618
277.684
273.952
299.903
293.286
307.824
298.657
325.207
306.898
346.649
317.612
285.884
278.911
286.943
279.35
287.483
280.154
289.144
280.713
289.559
286.737
288.627
285.627
281.687
283.011
303.981
307.642
328.007
333.661
292.433
295.95
291.691
294.071
284.752
286.748
275.207
273.461
275.68
273.58
275.571
273.499
276.079
273.634
276.189
273.564
277.224
273.793
278.131
274.016
278.493
274.099
284.384
279.963
287.815
280.617
293.82
286.638
299.744
287.692
280.816
276.446
278.953
276.099
290.56
281.01
291.685
280.981
304.69
288.363
306.354
288.225
282.231
276.65
282.866
276.648
275.931
273.53
274.35
273.274
275.12
273.391
274.169
273.232
276.537
273.65
274.451
273.297
276.825
273.721
274.458
273.302
273.67
273.194
273.212
273.078
273.787
273.256
273.222
273.088
274.047
273.43
273.257
273.124
277.684
281.713
275.411
274.092
273.231
279.624
276.472
274.5
273.683
273.154
281.589
277.423
275.048
273.825
273.174
273.048
273.011
273.026
273.009
273.067
273.016
273.033
273.011
273.13
273.033
273.051
273.018
276.153
274.369
274.458
273.5
273.621
273.193
273.269
273.08
273.076
273.03
277.106
274.597
274.905
273.617
273.855
273.258
273.352
273.101
273.092
273.036
275.55
273.684
275.912
273.811
278.552
274.798
279.001
274.996
274.292
273.33
274.09
273.27
276.148
273.859
276.138
273.856
279.192
275.046
279.129
275.03
274.446
273.357
274.445
273.358
273.467
273.112
273.11
273.039
273.409
273.094
273.101
273.035
273.509
273.12
273.115
273.041
273.551
273.126
273.13
273.044
273.002
273
273
273.001
273
273
273.003
273.001
273
273.002
273
273
273.006
273.001
273
273.003
273
273
273.433
273.119
273.031
273.126
273.034
273.009
273.043
273.011
273.003
273.015
273.003
273.001
273.005
273.001
273
273.487
273.116
273.025
273.15
273.03
273.006
273.056
273.01
273.002
273.02
273.003
273.001
273.006
273.001
273
273.058
273.006
273.001
273
273.075
273.008
273.001
273
273.061
273.006
273.001
273
273.083
273.009
273.001
273
273.062
273.006
273.001
273
273.092
273.01
273.001
273
273.114
273.012
273.001
273
273.124
273.013
273.001
273
273.066
273.007
273.001
273
273.036
273.004
273.001
273
273.049
273.005
273.001
273
273.031
273.003
273
273
273.081
273.009
273.001
273
273.039
273.004
273.001
273
273.09
273.01
273.001
273
273.041
273.005
273.001
273
273.032
273.004
273
273
273.014
273.002
273
273
273.033
273.004
273
273
273.015
273.002
273
273
273.034
273.004
273.001
273
273.018
273.002
273
273
273.03
273.003
273
273
273.02
273.002
273
273
273.024
273.003
273
273
273.006
273.001
273
273
273.003
273
273
273
273.007
273.001
273
273
273.004
273.001
273
273
273.009
273.001
273
273
273.005
273.001
273
273
273.012
273.001
273
273
273.006
273.001
273
273
273.014
273.002
273
273
273.008
273.001
273
273
273.017
273.002
273
273
273.01
273.001
273
273
273.016
273.002
273
273
273.009
273.001
273
273
273.018
273.002
273
273
273.01
273.001
273
273
273.019
273.002
273
273
273.011
273.002
273
273
273
273
273
273
273
273
273
273
273
273
273
273
273
273
273
273
273
273
273
273
273
273
273
273
273
273
273
273
273
273
273
273
273
273
273
273
273
273
273
273
273
273
273
273
273
273
273
273
273
273
273
273
273
273
273
273
273
273
273
273
273
273
273
273
273
273
273
273
273
273
273
273
273
273
273
273
273
273
273
273
273
273
273
273
273
273
273
273
273
273
273
273
273
273
273
273
273
273
273
273
273
273
273
273
273
273
273
273
273
273
273
273
273
273
273
273
273
273
273
273
273
273
273
273
273
362.872
352.91
363.072
353.254
363.416
353.902
364.189
354.803
365.366
356.164
363.968
358.546
365.397
358.926
362.86
357.821
362.401
357.248
500.806
521.851
526.222
528.704
530.966
435.229
468.603
479.928
487.533
493.791
501.595
522.469
526.79
529.243
531.473
435.666
468.888
480.111
487.709
494.019
501.719
522.565
526.891
529.352
531.59
435.723
468.871
480.109
487.729
494.065
502.56
523.271
527.565
530.014
532.238
435.894
468.985
480.283
487.977
494.384
504.662
524.976
529.15
531.522
533.657
437.31
470.177
481.356
488.954
495.264
501.865
522.497
526.842
529.292
531.326
438.31
470.518
481.52
488.99
495.171
503.769
524.174
528.418
530.817
532.889
439.059
471.496
482.502
489.953
496.113
500.564
521.363
525.766
528.243
530.244
437.585
469.709
480.718
488.197
494.392
500.588
521.342
525.734
528.204
530.173
436.903
469.123
480.179
487.649
493.91
320.883
366.776
361.195
314.942
295.043
297.445
298.312
302.542
306.629
314.063
336.887
359.18
348.42
372.983
321.091
331.813
308.901
315.455
302.12
305.945
274.984
273.707
273.002
273
273
273
273.001
274.482
273.628
273.256
273.163
273.041
273.02
273.061
273.013
273.006
273.006
273.003
274.5
273.215
273.021
273.017
273.062
273.033
273.012
273.005
273.001
273.001
273.005
273.004
274.771
273.476
273.735
273.158
273.067
273.252
273.011
273.002
273.017
273.838
273.355
273.142
273.048
273.013
273.344
273.158
273.063
273.021
273.005
273.001
273.001
273
273
273
273
273
273
273
273
273
273
273
273
273
273
273
273
273
273
273
273
273
273
273
273.616
273.251
273.096
273.032
273.009
273.242
273.087
273.031
273.01
273.003
273.124
273.055
273.021
273.007
273.002
273.062
273.021
273.007
273.002
273.001
273.015
273.005
273.002
273.001
273
273.011
273.005
273.002
273.001
273
273.03
273.013
273.005
273.002
273
273.006
273.003
273.001
273
273
273.003
273.002
273.001
273
273
273.004
273.002
273.001
273
273
273.002
273.001
273
273
273
273.656
273.277
273.109
273.036
273.01
273.11
273.051
273.02
273.007
273.002
273.012
273.006
273.002
273.001
273
273.01
273.005
273.002
273.001
273
273.034
273.016
273.007
273.002
273.001
273.019
273.01
273.004
273.001
273
273.007
273.004
273.002
273.001
273
273.003
273.002
273.001
273
273
273.001
273
273
273
273
273
273
273
273
273
273.003
273.002
273.001
273
273
273.003
273.001
273.001
273
273
273.764
273.325
273.13
273.043
273.012
273.237
273.109
273.044
273.015
273.004
273.366
273.164
273.066
273.022
273.006
273.086
273.041
273.017
273.006
273.001
273.038
273.019
273.008
273.003
273.001
273.133
273.063
273.026
273.009
273.002
273.006
273.003
273.001
273.001
273
273.001
273.001
273
273
273
273.01
273.005
273.002
273.001
273
400.965
496.265
385.703
484.048
360.808
458.049
373.687
468.713
360.947
333.978
434.89
370.644
336.647
312.908
398.949
339.282
423.207
450.236
508.169
520.861
407.679
432.241
497.397
510.778
450.941
384.009
398.326
357.293
408.521
474.179
496.944
502.424
403.879
419.453
460.034
462.897
365.501
376.536
504.316
516.948
437.551
459.261
525.61
539.394
488.191
540.098
537.645
559.504
467.466
530.684
527.145
554.488
428.142
510.617
478.165
534.796
516.932
550.522
532.794
556.611
320.581
307.855
337.696
312.342
301.875
294.148
314.14
297.12
371.004
338.16
350.033
331.461
352.045
315.054
357.142
315.295
324.684
298.932
328.116
299.02
387.864
342.083
394.241
342.607
418.557
507.213
386.244
475.86
395.804
492.296
375.633
464.058
436.277
516.287
392.03
482.355
443.279
520.019
393.074
485.325
446.924
401.571
521.065
484.506
422.892
382.202
508.758
468.934
390.496
358.288
487.746
447.187
306.187
291.773
330.34
369.481
464.92
288.85
301.023
320.18
349.624
429.832
289.949
302.055
323.169
361.731
441.848
336.78
302.868
359.432
316.148
331.796
301.263
359.73
315.873
324.099
298.155
359.36
315.862
282.786
277.803
291.564
282.435
304.985
289.616
325.358
300.352
362.45
319.461
283.343
277.977
292.378
283.91
308.026
293.407
333.992
307.752
367.656
325.86
294.159
287.2
293.571
287.173
284.139
278.198
284.179
278.287
309.452
299.33
311.058
299.642
292.616
287.097
292.479
287.075
284.018
278.365
283.967
278.345
307.264
298.747
306.903
298.597
335.721
316.976
364.957
336.484
338.222
317.367
368.579
336.948
332.711
315.799
362.335
335.341
330.68
314.588
359.287
333.579
288.085
282.697
294.52
286.319
287.332
281.457
294.176
284.994
285.245
279.453
293.602
283.096
275.089
273.817
277.309
274.785
280.843
276.351
286.039
278.692
294.518
281.622
275.026
273.686
278.146
274.86
282.496
276.36
288.524
278.29
295.103
280.272
294.071
288.315
307.059
296.758
312.034
298.025
342.869
313.786
286.001
278.79
289.979
280.322
285.61
279.396
290.298
281.248
289.275
284.011
287.696
282.835
280.288
283.038
303.173
307.421
326.454
333.254
292.23
295.856
291.306
293.962
284.724
286.719
275.532
273.591
276.134
273.709
275.717
273.596
276.376
273.725
276.097
273.618
277.308
273.846
278.181
274.048
278.506
274.109
282.697
279.336
286.805
280.272
290.26
285.157
297.741
286.961
280.395
276.329
278.306
275.917
290.109
280.857
291.567
280.941
303.832
288.055
306.139
288.147
282.039
276.594
282.815
276.633
275.889
273.543
274.329
273.276
275.114
273.418
274.156
273.241
276.513
273.658
274.439
273.298
276.818
273.723
274.454
273.302
274.656
273.911
273.4
273.226
274.739
273.998
273.394
273.232
274.941
274.247
273.402
273.264
279.25
283.976
276.393
274.412
273.295
282.392
278.563
275.916
274.161
273.239
282.521
278.059
275.367
273.945
273.202
273.402
273.145
273.115
273.051
273.475
273.181
273.126
273.058
273.647
273.267
273.151
273.072
278.47
275.512
276.128
274.354
274.576
273.691
273.613
273.265
273.139
273.068
278.331
275.162
275.674
273.984
274.214
273.43
273.477
273.162
273.117
273.051
275.568
273.765
275.826
273.807
278.447
274.902
278.791
274.964
274.268
273.333
274.125
273.312
276.096
273.848
276.123
273.853
279.085
275.019
279.1
275.022
274.427
273.354
274.44
273.357
273.466
273.115
273.112
273.04
273.432
273.111
273.108
273.04
273.505
273.12
273.116
273.041
273.549
273.126
273.13
273.044
273.06
273.035
273.016
273.009
273.077
273.041
273.018
273.009
273.108
273.047
273.021
273.008
274.012
273.369
273.511
273.181
273.27
273.099
273.099
273.033
273.019
273.005
273.733
273.229
273.298
273.089
273.125
273.037
273.045
273.013
273.012
273.003
273.078
273.009
273.001
273
273.094
273.01
273.001
273
273.077
273.008
273.001
273
273.098
273.011
273.001
273
273.073
273.008
273.001
273
273.102
273.011
273.001
273
273.12
273.012
273.001
273
273.125
273.013
273.001
273
273.07
273.008
273.001
273
273.037
273.004
273.001
273
273.054
273.006
273.001
273
273.033
273.004
273.001
273
273.083
273.009
273.001
273
273.04
273.005
273.001
273
273.091
273.01
273.001
273
273.041
273.005
273.001
273
273.055
273.006
273.001
273
273.032
273.004
273
273
273.053
273.006
273.001
273
273.032
273.004
273
273
273.05
273.005
273.001
273
273.033
273.004
273
273
273.038
273.004
273.001
273
273.03
273.003
273
273
273.029
273.003
273
273
273.018
273.002
273
273
273.011
273.001
273
273
273.019
273.002
273
273
273.012
273.002
273
273
273.02
273.002
273
273
273.013
273.002
273
273
273.019
273.002
273
273
273.012
273.002
273
273
273.018
273.002
273
273
273.011
273.002
273
273
273.018
273.002
273
273
273.01
273.001
273
273
273.017
273.002
273
273
273.01
273.001
273
273
273.018
273.002
273
273
273.011
273.002
273
273
273.019
273.002
273
273
273.011
273.002
273
273
273
273
273
273
273
273
273
273
273
273
273
273
273
273
273
273
273
273
273
273
273
273
273
273
273
273
273
273
273
273
273
273
273
273
273
273
273
273
273
273
273
273
273
273
273
273
273
273
273
273
273
273
273
273
273
273
273
273
273
273
273
273
273
273
273
273
273
273
273
273
273
273
273
273
273
273
273
273
273
273
273
273
273
273
273
273
273
273
273
273
273
273
273
273
273
273
273
273
273
273
273
273
273
273
273
273
273
273
273
273
273
273
273
273
273
273
273
273
273
273
273
273
273
273
273
360.37
351.256
360.978
351.846
361.943
352.859
363.361
354.139
364.997
355.834
363.918
358.496
365.259
358.783
362.843
357.807
362.397
357.245
500.598
521.838
526.224
528.706
530.968
434.948
468.575
479.924
487.533
493.792
501.42
522.458
526.792
529.245
531.475
435.428
468.866
480.11
487.71
494.02
501.595
522.56
526.894
529.356
531.593
435.545
468.855
480.109
487.729
494.063
502.488
523.267
527.566
530.016
532.239
435.779
468.975
480.284
487.977
494.381
504.63
524.974
529.151
531.522
533.657
437.25
470.172
481.357
488.953
495.261
501.86
522.497
526.842
529.292
531.325
438.301
470.518
481.52
488.988
495.169
503.757
524.173
528.418
530.817
532.889
439.034
471.494
482.502
489.952
496.11
500.563
521.363
525.766
528.242
530.243
437.582
469.709
480.718
488.196
494.392
500.589
521.342
525.735
528.205
530.173
436.903
469.123
480.18
487.65
493.91
320.627
366.273
359.411
314.259
300.663
310.959
298.075
310.189
323.353
356.509
329.592
359.779
273
273
273
273
273
273
273
273
273
273
273
273
273
273
273
273
273
273
273
273
273
273
273
273
273.001
273.003
273.012
273.045
273.131
273.211
273.001
273.002
273.007
273.02
273.043
273.063
273
273
273
273
273
273
273
273
273
273
273
273
273
273
273
273
273
273
273
273
273
273
273
273
273
273
273
273
273
273
273
273
273
273
273
273
273
273
273
273
273
273
273
273
273
273
273
273
273
273
273
273
273
273
273
273
273
273
273
273
273
273
273
273
273
273
273
273
273
273
273
273
273
273
273
273
273
273
273
273
273
273
273
273
273
273
273
273
273
273
273
273
273
273
273
273
273
273
273
273
273
273
273
273
273
273
273
273
273
273
273
273
273
273
273
273
273
273
273
273
273
273
273
273
273
273.002
273.001
273
273
273
273.007
273.004
273.002
273.001
273
273.026
273.013
273.005
273.002
273
273.071
273.034
273.014
273.005
273.001
273.112
273.053
273.022
273.008
273.002
273
273
273
273
273
273.001
273.001
273
273
273
273.004
273.002
273.001
273
273
273.012
273.006
273.003
273.001
273
273.025
273.012
273.005
273.002
273
273.036
273.017
273.007
273.003
273.001
273
273
273
273
273
273
273
273
273
273
273
273
273
273
273
273
273
273
273
273
273
273
273
273
273.001
273.003
273.012
273.045
273.131
273.211
273.001
273.002
273.007
273.02
273.043
273.063
273
273
273
273
273
273
273
273
273
273
273
273
273
273
273
273
273
273
273
273
273
273
273
273
273
273
273
273
273
273
273
273
273
273
273
273
273
273
273
273
273
273
273
273
273
273
273
273
273
273
273
273
273
273
273
273
273
273
273
273
273
273
273
273
273
273
273
273
273
273
273
273
273
273
273
273
273
273
273
273
273
273
273
273
273
273
273
273
273
273
273
273
273
273
273
273
273
273
273
273
273
273
273
273
273
273
273
273
273
273
273
273
273
273
273
273
273
273
273
273
273
273
273
273
273
273.002
273.001
273
273
273
273.007
273.004
273.002
273.001
273
273.026
273.013
273.005
273.002
273
273.071
273.034
273.014
273.005
273.001
273.112
273.053
273.022
273.008
273.002
273
273
273
273
273
273.001
273.001
273
273
273
273.004
273.002
273.001
273
273
273.012
273.006
273.003
273.001
273
273.025
273.012
273.005
273.002
273
273.035
273.017
273.007
273.003
273.001
274.979
273.706
273.002
273
273
273
273.001
274.481
273.676
273.262
273.186
273.021
273.063
273.007
273.01
273.004
274.477
273.213
273.021
273.017
273.062
273.033
273.012
273.005
273.001
273.001
273.006
273.004
274.756
273.473
273.726
273.157
273.067
273.25
273.011
273.002
273.017
273.835
273.354
273.142
273.047
273.013
273.343
273.157
273.063
273.021
273.005
273.001
273.001
273
273
273
273
273
273
273
273
273
273
273
273
273
273
273
273
273
273
273
273
273
273
273
273.649
273.276
273.11
273.037
273.011
273.295
273.12
273.048
273.016
273.004
273.132
273.061
273.025
273.008
273.002
273.083
273.034
273.013
273.004
273.001
273.012
273.006
273.002
273.001
273
273.033
273.015
273.006
273.002
273.001
273.004
273.002
273.001
273
273
273.006
273.003
273.001
273
273
273.002
273.001
273
273
273
273.655
273.281
273.113
273.038
273.011
273.111
273.052
273.021
273.007
273.002
273.012
273.006
273.003
273.001
273
273.01
273.005
273.002
273.001
273
273.034
273.016
273.007
273.002
273.001
273.019
273.01
273.004
273.001
273
273.007
273.004
273.002
273.001
273
273.003
273.002
273.001
273
273
273.001
273
273
273
273
273.001
273
273
273
273
273.003
273.002
273.001
273
273
273.003
273.001
273.001
273
273
273.757
273.322
273.129
273.043
273.012
273.235
273.108
273.044
273.015
273.004
273.363
273.163
273.066
273.023
273.006
273.085
273.041
273.017
273.006
273.001
273.038
273.019
273.008
273.003
273.001
273.133
273.063
273.026
273.009
273.002
273.006
273.003
273.001
273.001
273
273.001
273.001
273
273
273
273.01
273.005
273.002
273.001
273
273
273.001
273.002
273.006
273.012
273.021
357.459
345.693
326.087
335.822
328.992
314.973
311.845
299.147
380.492
405.803
367.162
387.052
348.2
333.96
363.977
337.003
328.55
312.251
319.003
316.284
305.814
302.272
293.191
356.15
369.547
345.94
355.28
330.529
319.691
337.938
311.001
306.435
295.058
298.444
299.591
293.647
289.952
285.079
324.385
331.765
318.165
323.351
309.149
302.506
312.946
291.181
289.185
282.869
284.221
285.978
283.011
280.789
278.702
299.644
303.437
296.422
299.024
291.591
287.672
293.4
281.002
280.177
277.091
277.597
278.784
277.494
276.309
275.508
285.359
287.817
283.791
285.632
281.63
279.748
282.99
276.137
275.818
274.513
274.686
275.315
274.885
274.247
273.984
278.371
280.789
277.653
279.469
276.823
276.07
277.995
292.43
289.81
305.064
310.574
286.507
283.266
297.15
289.48
282.5
276.735
281.88
277.022
280.091
279.546
277.491
287.865
285.845
296.983
301.005
283.293
280.827
291.176
285.503
279.737
275.317
279.299
275.568
277.904
277.603
275.878
281.537
280.388
286.433
288.549
278.939
277.529
283.347
280.289
276.825
274.149
276.544
274.296
275.758
275.587
274.48
276.664
276.192
278.801
279.642
275.548
274.882
277.567
276.246
274.618
273.442
274.51
273.514
274.166
274.063
273.606
274.396
274.226
275.286
275.588
273.981
273.721
274.843
274.351
273.591
273.171
273.559
273.201
273.448
273.406
273.243
273.453
273.402
273.794
273.889
273.336
273.269
273.655
273.506
273.203
273.081
273.196
273.091
273.169
273.164
273.106
462.826
517.816
439.399
501.317
413.631
483.521
382.018
453.106
385.442
442.481
416.126
478.168
438.132
497.222
455.541
511.703
391.026
352.783
445.544
378.846
360.154
326.847
407.438
345.487
475.203
491.539
524.972
533.831
448.659
466.265
507.766
519.441
461.512
413.689
407.166
378.437
435.132
483.216
499.904
503.042
406.915
420.144
462.568
463.478
367.868
377.111
507.485
517.575
440.716
459.949
528.116
539.859
509.218
546.663
544.825
561.842
485.308
536.181
532.15
556.16
443.484
515.251
484.763
536.874
519.041
551.227
533.166
556.745
328.161
310.788
341.847
313.706
307.636
296.577
317.31
298.258
375.365
339.404
358.218
334.194
353.734
315.596
357.543
315.425
325.99
299.392
328.428
299.131
389.631
342.573
394.66
342.723
421.844
508.281
387.122
476.173
402.061
494.377
377.626
464.806
437.615
516.737
392.371
482.476
443.595
520.131
393.153
485.355
483.309
438.318
531.769
496.04
451.475
410.302
517.388
478.121
410.704
377.676
494.144
453.962
306.798
289.695
335.426
377.268
467.869
286.13
300.872
325.497
359.18
433.757
289.44
303.327
326.297
365.197
443.319
360.754
315.103
369.069
320.722
351.306
311.893
367.329
319.699
339.042
306.857
364.961
318.948
280.552
276.835
291.581
282.972
309.298
292.791
332.556
305.332
365.397
321.41
282.331
277.607
292.876
284.431
310.194
294.808
336.606
309.366
368.868
326.652
295.077
287.636
294.08
287.407
284.591
278.245
284.559
278.396
309.976
299.609
312.228
300.326
292.821
287.191
292.53
287.097
284.184
278.422
284.009
278.36
307.463
298.844
306.951
298.619
336.107
317.202
365.129
336.598
339.22
317.998
369.037
337.277
332.852
315.873
362.396
335.375
330.714
314.604
359.301
333.586
287.662
277.223
274.273
289.533
277.634
274.383
287.2
277.035
274.165
289.317
277.474
274.265
285.065
276.294
273.901
289.06
277.167
274.091
274.379
273.386
273.101
276.694
274.005
273.254
280.329
274.92
273.47
284.718
276.018
273.74
290.001
277.159
273.967
274.748
273.471
273.107
277.877
274.346
273.312
282.079
275.405
273.531
287.433
276.624
273.764
292.616
277.684
273.952
299.872
293.27
307.791
298.641
325.18
306.883
346.62
317.597
285.761
278.876
286.778
279.302
287.433
280.129
289.091
280.689
289.535
286.713
288.613
285.612
281.669
282.993
303.97
307.634
327.996
333.652
292.419
295.943
291.682
294.065
284.741
286.742
275.203
273.46
275.671
273.579
275.562
273.498
276.07
273.633
276.181
273.563
277.216
273.791
278.126
274.015
278.49
274.099
284.377
279.96
287.808
280.614
293.811
286.633
299.735
287.687
280.811
276.445
278.947
276.097
290.555
281.008
291.681
280.979
304.683
288.36
306.348
288.223
282.227
276.649
282.863
276.647
275.928
273.529
274.35
273.273
275.117
273.39
274.168
273.232
276.535
273.65
274.451
273.297
276.823
273.721
274.457
273.302
273.668
273.193
273.211
273.077
273.785
273.255
273.222
273.088
274.045
273.429
273.257
273.124
277.682
281.709
275.409
274.091
273.23
279.621
276.47
274.498
273.682
273.154
281.585
277.421
275.046
273.824
273.173
273.048
273.011
273.026
273.009
273.067
273.016
273.032
273.011
273.129
273.033
273.051
273.018
276.152
274.368
274.457
273.5
273.62
273.193
273.269
273.08
273.076
273.03
277.104
274.596
274.904
273.617
273.854
273.258
273.351
273.101
273.091
273.036
275.549
273.684
275.911
273.811
278.55
274.797
279
274.995
274.292
273.33
274.089
273.27
276.148
273.859
276.137
273.856
279.191
275.046
279.128
275.029
274.446
273.357
274.445
273.358
273.467
273.112
273.11
273.039
273.409
273.094
273.101
273.035
273.509
273.12
273.115
273.041
273.55
273.126
273.13
273.044
273.002
273
273
273.001
273
273
273.003
273.001
273
273.002
273
273
273.006
273.001
273
273.003
273
273
273.433
273.119
273.031
273.126
273.034
273.009
273.043
273.011
273.003
273.015
273.003
273.001
273.005
273.001
273
273.487
273.116
273.025
273.15
273.03
273.006
273.056
273.01
273.002
273.02
273.003
273.001
273.006
273.001
273
273.058
273.006
273.001
273
273.074
273.008
273.001
273
273.061
273.006
273.001
273
273.083
273.009
273.001
273
273.062
273.006
273.001
273
273.092
273.01
273.001
273
273.114
273.012
273.001
273
273.123
273.013
273.001
273
273.066
273.007
273.001
273
273.036
273.004
273.001
273
273.048
273.005
273.001
273
273.031
273.003
273
273
273.081
273.009
273.001
273
273.039
273.004
273.001
273
273.09
273.01
273.001
273
273.041
273.005
273.001
273
273.032
273.004
273
273
273.014
273.002
273
273
273.033
273.004
273
273
273.015
273.002
273
273
273.034
273.004
273.001
273
273.018
273.002
273
273
273.029
273.003
273
273
273.02
273.002
273
273
273.024
273.003
273
273
273.006
273.001
273
273
273.003
273
273
273
273.007
273.001
273
273
273.004
273.001
273
273
273.009
273.001
273
273
273.005
273.001
273
273
273.012
273.001
273
273
273.006
273.001
273
273
273.014
273.002
273
273
273.008
273.001
273
273
273.017
273.002
273
273
273.01
273.001
273
273
273.016
273.002
273
273
273.009
273.001
273
273
273.018
273.002
273
273
273.01
273.001
273
273
273.019
273.002
273
273
273.011
273.002
273
273
273
273
273
273
273
273
273
273
273
273
273
273
273
273
273
273
273
273
273
273
273
273
273
273
273
273
273
273
273
273
273
273
273
273
273
273
273
273
273
273
273
273
273
273
273
273
273
273
273
273
273
273
273
273
273
273
273
273
273
273
273
273
273
273
273
273
273
273
273
273
273
273
273
273
273
273
273
273
273
273
273
273
273
273
273
273
273
273
273
273
273
273
273
273
273
273
273
273
273
273
273
273
273
273
273
273
273
273
273
273
273
273
273
273
273
273
273
273
273
273
273
273
273
273
273
363.001
353.047
363.101
353.276
363.418
353.904
364.186
354.8
365.364
356.162
363.967
358.545
365.396
358.925
362.86
357.821
362.4
357.248
501.315
522.27
526.608
529.069
531.313
435.531
468.889
480.198
487.793
494.042
501.554
522.443
526.769
529.225
531.458
435.679
468.908
480.132
487.732
494.041
501.707
522.557
526.883
529.346
531.584
435.719
468.868
480.107
487.728
494.064
502.556
523.267
527.561
530.011
532.235
435.889
468.98
480.278
487.973
494.38
504.661
524.974
529.149
531.521
533.656
437.307
470.174
481.353
488.951
495.261
501.865
522.497
526.842
529.292
531.326
438.31
470.518
481.52
488.989
495.17
503.769
524.174
528.417
530.817
532.889
439.058
471.495
482.501
489.952
496.112
500.564
521.363
525.766
528.243
530.244
437.585
469.709
480.718
488.197
494.392
500.588
521.342
525.734
528.204
530.172
436.903
469.123
480.179
487.649
493.91
320.872
366.763
361.177
314.924
294.763
297.05
298.228
302.45
306.573
314
336.849
359.135
348.381
372.934
321.027
331.744
308.81
315.357
301.629
305.244
274.984
273.707
273.002
273
273
273
273.001
274.481
273.627
273.256
273.163
273.04
273.02
273.061
273.013
273.006
273.006
273.003
274.499
273.215
273.021
273.017
273.062
273.033
273.012
273.005
273.001
273.001
273.005
273.004
274.771
273.476
273.735
273.158
273.067
273.252
273.011
273.002
273.017
273.838
273.355
273.142
273.047
273.013
273.344
273.158
273.063
273.021
273.005
273.001
273.001
273
273
273
273
273
273
273
273
273
273
273
273
273
273
273
273
273
273
273
273
273
273
273
273.616
273.25
273.096
273.032
273.009
273.242
273.087
273.031
273.01
273.003
273.124
273.055
273.021
273.007
273.002
273.062
273.021
273.007
273.002
273.001
273.015
273.005
273.002
273.001
273
273.011
273.005
273.002
273.001
273
273.03
273.013
273.005
273.002
273
273.006
273.003
273.001
273
273
273.003
273.002
273.001
273
273
273.004
273.002
273.001
273
273
273.002
273.001
273
273
273
273.656
273.276
273.109
273.036
273.01
273.11
273.051
273.02
273.007
273.002
273.012
273.006
273.002
273.001
273
273.01
273.005
273.002
273.001
273
273.034
273.016
273.007
273.002
273.001
273.019
273.01
273.004
273.001
273
273.007
273.004
273.002
273.001
273
273.003
273.002
273.001
273
273
273.001
273
273
273
273
273
273
273
273
273
273.003
273.002
273.001
273
273
273.003
273.001
273.001
273
273
273.764
273.325
273.13
273.043
273.012
273.237
273.109
273.044
273.015
273.004
273.366
273.164
273.066
273.022
273.006
273.086
273.041
273.017
273.006
273.001
273.038
273.019
273.008
273.003
273.001
273.133
273.063
273.026
273.009
273.002
273.006
273.003
273.001
273.001
273
273.001
273.001
273
273
273
273.01
273.005
273.002
273.001
273
401.745
497.253
385.583
483.74
360.701
457.755
374.403
469.758
360.867
333.932
434.743
370.579
336.584
312.874
398.831
339.236
423.944
450.872
509.07
521.598
407.569
432.151
497.105
510.551
450.805
383.932
398.246
357.239
408.445
474.044
496.899
502.409
403.842
419.435
459.994
462.882
365.473
376.521
504.269
516.933
437.509
459.243
525.57
539.383
488.687
540.328
538.158
559.706
467.381
530.644
527.005
554.433
428.083
510.59
478.076
534.762
516.897
550.509
532.783
556.607
320.552
307.839
337.663
312.329
301.853
294.134
314.116
297.109
370.967
338.146
349.999
331.444
352.023
315.045
357.128
315.289
324.668
298.925
328.105
299.015
387.839
342.074
394.227
342.601
418.522
507.2
386.233
475.856
395.772
492.282
375.62
464.052
436.255
516.279
392.023
482.352
443.266
520.014
393.069
485.324
447.312
401.913
521.321
484.844
422.847
382.162
508.722
468.875
390.464
358.268
487.725
447.165
306.168
291.759
330.318
369.46
464.908
288.838
301.007
320.162
349.606
429.819
289.937
302.04
323.154
361.718
441.841
337.063
302.979
359.788
316.306
331.756
301.25
359.698
315.87
324.083
298.147
359.344
315.857
282.779
277.8
291.554
282.431
304.975
289.611
325.346
300.345
362.441
319.457
283.336
277.974
292.369
283.906
308.017
293.403
333.984
307.748
367.651
325.857
294.152
287.196
293.566
287.17
284.132
278.196
284.174
278.285
309.447
299.327
311.051
299.639
292.612
287.096
292.477
287.074
284.015
278.363
283.965
278.344
307.261
298.745
306.901
298.597
335.717
316.974
364.955
336.483
338.216
317.364
368.576
336.947
332.709
315.798
362.334
335.34
330.678
314.587
359.286
333.579
288.146
282.737
294.606
286.378
287.329
281.457
294.176
284.997
285.241
279.452
293.6
283.096
275.088
273.817
277.308
274.784
280.841
276.35
286.036
278.691
294.516
281.621
275.025
273.686
278.145
274.859
282.495
276.36
288.522
278.29
295.101
280.271
294.057
288.303
307.042
296.744
312
298.004
342.819
313.759
286.072
278.817
290.049
280.347
285.61
279.398
290.302
281.252
289.27
284.006
287.689
282.829
280.286
283.036
303.16
307.412
326.434
333.242
292.223
295.849
291.298
293.956