/*--------------------------------*- C++ -*----------------------------------*\
  =========                 |
  \\      /  F ield         | OpenFOAM: The Open Source CFD Toolbox
   \\    /   O peration     | Website:  https://openfoam.org
    \\  /    A nd           | Version:  11
     \\/     M anipulation  |
\*---------------------------------------------------------------------------*/
FoamFile
{
    format      ascii;
    class       volScalarField;
    location    "2.7";
    object      gradTz;
}
// * * * * * * * * * * * * * * * * * * * * * * * * * * * * * * * * * * * * * //

dimensions      [0 -1 0 1 0 0 0];

internalField   nonuniform List<scalar> 
5712
(
7046.43
23164.7
5586.02
23760.4
4201.49
24605
6650.98
38020.1
8179.32
52296.4
8107.99
38037.5
7810.47
31537.2
8116.4
28158.9
4909.56
3016.69
13124.3
7760.3
4820.59
2595.02
14409.1
7149.44
5345.26
3844.34
17155.3
11996.2
4040.02
2877.87
16879.1
12192.7
9469.15
3998
8155.21
3620.57
3729.5
8801.83
32958.7
8946.87
11783.4
4004.3
42549.8
11574.3
11075.6
3854.69
23475.6
7294.36
12035.1
4208.37
20355.8
6482.08
5528.01
2740.67
8348.43
3235.43
5976.67
3235.87
8151.97
3108.41
7643.23
4344.37
7022.98
3031.08
10480
3750.93
3611.29
1255.88
11834.3
8150.36
7351.05
5348.77
13405
11015.9
7332.13
6347.49
6901.88
4614.71
9645.17
6380.14
4863.35
3561.98
2492.71
2038.2
4742.57
4098.24
2480.94
2387.88
4628.98
3007.21
2389.41
1519.62
6122.53
3314.41
4546.41
5533.52
8312.84
5907.08
6532.99
9420.75
4075.7
1921.22
2692.62
3182.08
2036.41
840.048
1167.55
1180.55
7160.29
12869.9
4879.43
14398
8437.16
12624.4
6021.27
15121.6
9642.94
11471.3
7799.79
14836
11751.9
14256.8
8628
8259.36
9089.12
14219.8
12894.3
12445.4
12648.5
18366.5
11549
8700.85
7392.24
8254.1
13084.9
14839.9
13187.7
17243.2
16482.4
13587.2
12539.4
17062.5
16165.6
11774.3
11428.5
16047.9
15612.7
10343
8060.86
9394.84
8091.52
10137.4
8921.2
10784
10225.3
14857.2
15064.9
9681.57
8301.7
9051.05
8523.04
9203.93
9562.65
10298.1
11373.7
13466.1
15358.4
7938.25
6220.26
5478.31
7010.5
10901
13354.8
7583.33
12045.4
4579.57
6069.61
6786.58
5572.97
1295.97
4663.11
690.072
1680.84
3882.67
8123.64
1447.51
2825.25
567.429
3911.29
335.985
1371.02
4469.17
4547.31
5075.76
3111.25
7047.93
5598.78
8290.76
5652.83
993.849
2486.45
2508.76
1398.3
1413.53
1846.92
2014.66
1516.61
10435.8
6308.71
1970.7
11840.3
6757
2205.33
10003.3
6241.97
2093.29
11675.8
6769.7
2203.44
9207.67
5725.7
1873.98
11421
6817.08
2271.98
5188.69
2751.32
724.971
6499.76
4256.71
1482.05
7655.06
5276.47
1817.46
8787.68
5656.23
1871.64
11333.2
7022.19
2456.46
6208.19
3429.83
1067.89
6039.74
4325.6
1624.68
7084.54
5229.5
1910.3
8873.63
6207.41
2209.01
11450.2
7089.44
2504.07
294.538
1993.21
2802.96
4067.78
2125.32
2456.31
5351.27
5096.22
598.819
1040.9
639.547
1084.66
485.101
1416.47
868.185
1859.88
3211.68
1575.59
4072.96
2355.45
2180.22
3795.31
3378.82
971.111
5959.48
1487.31
-1827.18
778.125
1819.47
1377.3
1272.53
1205.07
9928.4
4683.79
2719.88
1731.48
10087
4876.17
3408
2181.05
9969.76
5258.41
4957.9
3561.31
3536.29
2594.62
1795.54
1735.9
12542.8
11173.4
5918.14
6157.46
13319.2
12518.9
6575.42
6646.21
5347.5
5523.66
10921.6
9175.04
3552.69
3718.65
2020.71
2278.05
4069.13
4048.5
2266.81
2418.36
3155.94
3399.27
1807.62
2188.61
4847.85
3504.86
4875.93
3598.02
7530.69
4647.44
7240.12
4980.49
2947.67
2535.6
3093.11
2332.39
1685.77
1606.12
1972.35
1368.53
11908.6
8617.73
6214.09
6529.43
11862
8784.86
6256.88
6498.58
12277
9039.05
6347.44
6299.54
13766
14647.2
12738.4
8711.13
5189.48
13886.4
13095.9
12424.8
10518.2
7171.32
13019.4
11951.2
9731.74
7691.21
5064.14
7615.55
6999.28
7291.93
8580.9
7766.49
6807.42
7325.44
8426.43
7959.35
6624.11
7337.41
8237.86
10489.4
7392.26
10009.3
7023.86
8110.52
6666.2
7822.84
6868.34
6773.49
8103.85
8704.01
7553.15
7873.11
6932.82
6917.56
6377.95
6344.52
6458.93
5374.5
7726.41
7035.3
4776.16
4679.35
2785.39
9016.53
6952.04
6283.91
5032.46
3925.07
2397.6
5700.35
4287.65
4743.74
2244.82
1752.7
1011.94
4949.53
3569.35
1745.62
1443.46
4180.28
1904.38
1657.46
884.454
3415.4
3248.27
3166.86
4741.21
4760.94
4646.75
4065.95
6118.18
3395.6
2291.28
2254
3181.44
1058.43
535.358
297.258
637.63
4903.04
2041.52
599.792
5745.12
1475.24
390.876
4910.57
2186.16
669.141
5701.98
1526.59
423.637
4494.44
2123.41
546.781
5553.36
1540.71
359.007
4524.9
2252.27
479.955
4266.53
2036
466.517
4371.7
2087.47
559.181
4513.4
2110.47
439.414
5493.83
1499.12
222.703
5792.56
2872.51
746.292
5413.46
2680.47
723.848
5109.85
2521.18
730.025
5044.87
2140.17
519.154
5932.08
1387.34
335.756
1867.59
677.383
131.748
-223.035
775.444
297.726
80.1098
-45.5198
1981.65
744.71
190.174
-138.613
984.202
415.054
197.624
92.5061
2134.41
831.746
288.674
-10.5017
1689.83
804.09
325.652
80.2826
1290.06
746.794
292.662
4.34343
1223.09
824.48
503.841
310.783
1776.3
800.192
256.327
-187.95
1532
679.148
302.194
-194.245
2103.56
823.55
265.166
-144.014
1911.74
750.87
298.943
-323.536
1428.71
750.472
314.583
-54.6442
1179.63
605.104
330.601
6.99602
1062.46
668.629
412.139
262.061
816.116
516.628
354.537
216.327
2395.4
818.416
126.597
-442.18
2400.27
757.582
174.033
-608.042
2394.47
831.667
150.057
-419.867
2326.13
737.785
183.251
-588.548
2351.52
837.032
229.842
-301.135
2170.22
699.425
228.638
-483.373
2060.44
774.88
321.522
-46.5091
2379.79
784.81
326.532
-566.038
1852.7
696.525
325.784
-132.681
1924.71
536.525
157.673
-414.956
771.574
195.467
44.9087
-87.5434
1980.82
572.234
178.851
-394.984
800.948
211.123
58.2885
-72.0219
2005.59
612.387
224.752
-346.785
810.262
228.777
76.5243
-52.4966
1804.96
578.371
260.004
-274.183
783.19
236.346
105.149
-17.9836
1649.68
576.533
288.773
-159.849
696.262
249.224
144.692
29.713
1156.97
471.133
234.3
-43.9033
653.564
328.863
205.826
112.633
1335.36
475.566
229.387
-112.881
658.573
283.934
175.28
71.4556
933.038
459.396
262.951
46.4388
589.335
349.776
230.908
152.745
660.489
420.656
295.664
189.897
495.316
351.839
255.3
198.123
-19.549
9.46958
9.6635
6.98543
5.47195
-2.7212
6.29158
5.44374
3.86345
3.0279
11.622
26.4544
19.6018
13.3609
10.3106
31.0921
25.6248
16.9366
11.2413
8.61615
46.1589
47.2455
32.2263
21.6534
16.6706
127.193
86.7573
54.8916
36.1135
27.6167
153.636
102.705
64.8865
42.7687
32.7945
222.803
136.154
83.6556
54.6793
41.8723
81.8164
69.1328
45.5635
30.3347
23.2136
86.9442
65.0959
41.9899
27.8895
21.3517
56.1835
55.2582
37.1166
24.9302
19.1677
101.691
67.1711
41.9576
27.6894
21.141
106.639
82.6946
53.8499
35.7868
27.4539
116.16
77.972
49.2514
32.5264
24.9106
177.204
109.72
67.5612
44.185
33.818
147.986
90.5728
55.6806
36.4072
27.8185
-36.6085
5.04589
7.18603
5.36627
4.23642
-20.0614
1.64277
2.82289
2.15014
1.72008
-16.187
15.6911
13.3352
9.31046
7.25812
-12.7674
5.41632
4.96813
3.5053
2.76193
9.53164
28.0464
20.3107
13.8342
10.7587
14.6653
17.9336
11.9084
7.86742
6.09695
66.4458
54.307
35.1961
23.5194
18.1774
44.0885
34.2483
21.7318
14.416
11.1475
121.982
71.0398
43.0682
28.1473
21.4996
1526.95
3495.25
1530.85
3452.74
1659.37
3417.26
1979.83
3557.16
2075.4
3682.04
819.672
1297.87
1362.12
2199.8
428.07
627.326
146.881
204.169
8009.84
1909.07
436.47
97.2354
24.0832
2178.26
585.749
155.544
35.2891
7.64415
7935.15
1875.43
428.28
94.5952
23.5996
2215.75
653.26
160.716
37.2826
9.2332
7612.42
1785.89
406.155
89.5678
22.3662
2150.65
632.117
155.123
35.8077
8.89974
7016.09
1630.64
369.58
81.4061
20.3284
2093.88
602.664
145.961
33.3906
8.2529
5918.64
1368
310.116
68.3827
17.0938
1986.84
556.232
133.205
30.2745
7.45857
2835.97
685.313
157.953
35.0678
8.77561
970.39
276.027
65.5338
14.6273
3.59314
4202.73
1001.3
229.037
50.611
12.6481
1428.68
401.177
96.1049
21.8273
5.4129
1670.03
406.848
94.1984
21.0124
5.26712
541.108
160.243
37.7754
8.42235
2.0877
576.406
139.554
32.3711
7.24206
1.81543
215.675
57.578
12.4749
3.52432
0.670693
154.361
515.199
4474.4
-809.589
740.693
793.812
2314.19
2961.97
1858.02
3491.39
2923.6
4511.91
3519.9
4369.53
1830.57
2467.14
1957.96
2322.17
1018.85
1059.32
2287.44
1682.42
505.46
-472.76
-771.654
-926.412
-287.94
12766.3
3014.45
4164.2
2673.35
-191.311
-59.5758
2936.43
-1434.39
-808.601
-1104.46
-564.622
7011.68
3685.75
1246.03
1037.07
3646.68
2006.74
637.413
1378.87
-1506.71
-878.376
691.153
545.343
8629.46
4292.72
5282.63
2838.52
4079.71
4411.89
1531.33
-908.471
913.592
1632.69
1353.24
1183.49
1086.55
856.177
1338.61
1085.73
858.065
612.295
267.162
445.724
372.892
286.008
183.922
64.5174
-422.133
-352.099
-262.637
-161.319
-54.3159
-689.614
-576.09
-430.74
-265.211
-89.3884
-829.125
-693.932
-519.934
-320.723
-108.217
-250.518
-200.395
-140.819
-80.8166
-25.7878
9341.49
8217.46
7145.68
6704.5
6378.43
2728.93
2447.57
2330.99
1983.86
1067.06
3204.84
2581.53
2210.66
1766.42
941.728
2078.04
1706.35
1513.17
1188.62
505.914
-25.0034
28.0687
147.214
164.939
83.4338
43.5152
131.895
180.236
163.207
70.5617
2508.98
2117.43
1689.57
1193.19
496.489
-873.924
-429.177
-170.292
-31.6311
6.58432
-644.637
-459.838
-279.279
-133.86
-34.9553
-782.474
-488.65
-254.716
-101.399
-21.6404
-510.842
-424.37
-310.013
-184.519
-60.0633
5247.13
4812.98
4230.63
3993.66
3827.18
2847.9
2266.7
1907.94
1474.91
733.968
1163.99
1065.57
916.157
666.405
266.54
919.507
794.748
647.128
449.821
172.894
3051.43
2475.59
1902.22
1277.51
497.298
1785.84
1525.68
1209.08
809.838
295.492
558.192
471.308
371.422
248.759
91.6358
1220.51
1026.71
792.393
513.065
181.517
-1307.78
-1056.14
-763.437
-457.144
-151.327
-772.614
-630.327
-456.861
-272.128
-89.4016
623.401
544.062
443.23
304.85
113.989
494.474
434.025
354.953
243.763
90.2488
5607.38
4138.93
3621.27
3407.25
3061.22
3291.57
2577.32
2012.13
1454.35
665.156
3909.94
3232.76
2649.39
2093.97
1040.26
2276.95
1869.19
1470.17
1044.42
461.544
3484.72
2865.06
2203.8
1459
544.301
3351.97
2494.94
2050.33
1564.38
673.952
1342.73
1122.51
866.219
564.497
201.882
-806.138
-665.493
-489.274
-295.654
-98.1844
811.209
700.373
568.758
392.906
148.003
-26893.3
-44098.9
-22290.8
-35705
-23931.1
-50239.5
-28649.5
-63783.8
-17021.5
-11626.6
-19182.1
-11923.8
-15722
-10093.2
-19491.1
-10233
-22204.5
-16695.1
-32386.4
-23291.6
-19068.4
-15164.7
-27079
-20311.3
-15303.5
-15612.3
-12554.4
-12045
-14754.2
-13922.5
-37474.6
-10335.8
-14237.9
-5307.72
-45882.6
-12707.9
-12734.5
-4716.36
-27839.3
-8767.82
-14576.8
-5577.51
-24725.9
-7691.35
-11429.8
-4592.92
-14588.2
-5281.16
-10843.7
-4762.5
-12683.5
-4585.38
-11245.9
-5445.3
-10132.7
-4016.01
-13015.5
-4590.23
-4569.16
-1602.94
-9720.12
-6431.44
-8389.83
-5098.86
-8599.73
-6905.71
-7374.79
-5256.04
-8519.95
-4826.58
-9964.9
-6182.6
-5746.04
-3418.1
-3093.15
-1894.51
-4960.38
-3416.2
-2572.57
-1827.17
-5834.48
-3158.8
-3227.87
-1613.29
-7500.81
-3803.58
-4831.69
-5635.62
-9507.97
-6381.09
-6795.01
-9503.33
-5091.6
-2281.09
-2895
-3258.55
-2756.31
-1108.66
-1310.98
-1239.08
-11207.2
-13608.5
-6307.4
-15375.2
-11654.6
-12988.7
-7243.65
-15724.2
-11784.7
-11837.9
-8634.63
-14972.9
-8087.35
-6542.1
-8826.54
-9775.44
-9745.61
-8975.56
-10322.9
-11936.7
-12800
-18171.2
-6148.66
-6307.73
-6844.94
-8279.51
-12971
-12906
-8999.31
-16361.4
-12575.8
-11965
-8860.47
-16120.9
-12524.1
-10595.4
-8274.43
-15046.7
-12396
-7372.76
-5873.96
-7552.67
-6026.37
-8407.78
-6770.78
-9154.51
-7739.39
-13716.5
-12460
-6932.48
-5969.35
-6912.38
-5950.65
-7567.98
-7015.41
-9076.11
-8944.28
-12683.5
-13004.2
-6337.02
-5060.23
-4664.56
-6145.36
-7988.68
-11103.3
-6042.07
-10252.4
-4259.72
-5654.23
-6083.85
-4974.08
-787.33
-4048.48
-225.534
-1192.02
-2894.01
-7051.73
-628.434
-1961.38
-369.448
-3606.93
-129.843
-1117.27
-4373.97
-4365.01
-5036.87
-3020.07
-6771.86
-5259.34
-8148.93
-5345.24
-940.911
-2357.35
-2476.37
-1337.08
-1343.41
-1730.08
-1972.86
-1452.46
-5455.39
-1876.77
-7375.63
-2517.71
-5577.04
-1958.07
-7550.61
-2712.1
-5532.96
-1927.97
-8001.32
-3090.55
-3447.64
-962.635
-4264.31
-1641.7
-4787.72
-1862.95
-5743.58
-2179.43
-8443.53
-3369.15
-4403.4
-1326.48
-3885.78
-1940.76
-4666.12
-2243.6
-6306.38
-2773.43
-8739.29
-3308.07
-5968.4
-5611.76
-4450.34
-4399.92
-9961.21
-7626.47
-8062.34
-6695.15
-4090.43
-3606.15
-1665.73
-1217.58
-3849.26
-3771.88
-1524.19
-1608.57
-2859.14
-4552.52
-3429.48
-4918.89
-3744.79
-2396.09
-3091.83
-434.031
-6554.97
-1676.51
2604.8
502.709
-859.13
-213.185
301.274
751.732
-2511.81
-1837.91
-927.274
-579.518
-2654.92
-1944.5
-1362.39
-658.096
-2954.04
-2325
-1784.13
-891.475
-1104.89
-35.3535
717.196
1143.47
-4996.65
-5400.3
-3829.78
-3611.44
-6674.23
-6704.36
-5520.35
-4650.36
-2537.3
-2873.9
-3845.07
-4453.89
-2291.02
-2005.41
-934.122
-865.714
-3525.74
-2773.56
-1767.07
-1389.37
-1290.28
-1476.39
-187.19
-547.139
-1720.31
-1278.29
-2517.64
-1911.85
-2739.71
-2339.49
-3906.99
-3140.63
-597.945
-380.768
-1212.43
-755.525
420.998
549.394
-289.862
156.61
-3708.94
-4734.39
-3246.7
-4879.45
-3663.63
-4704.05
-3323.4
-4872.11
-3837.46
-4330.34
-3502.56
-4627.51
-2790.49
-4607.98
-2447.5
-2239.1
-2541.08
-6956.52
-4987.66
-4691.62
-5000.84
-5342.42
-5574.32
-4739.58
-4095.9
-3920.87
-3232.69
-5689.47
-5773.94
-7593.7
-11736.9
-5365.48
-5180.32
-7283.22
-11177.6
-4894.95
-4730.63
-6720.13
-10291
-6812.15
-5239.51
-6214.18
-4748.21
-5529.9
-4436.05
-5777.59
-5373.26
-6214.65
-9519.8
-5523.15
-5225.56
-4750.79
-4794.65
-4370.15
-4657.69
-4632.77
-5574.43
-4429.2
-8400.19
-3888.77
-2792.45
-2650.33
-959.926
-5518.32
-4851.4
-4271.19
-3138.55
-2099.25
-789.905
-3234.71
-2628.05
-3191.6
-967.266
-427.489
127.687
-3554.24
-2318.59
-613.1
-348.056
-2664.56
-739.76
-280.303
184.221
-1998.91
-2133
-2261.1
-4269.24
-3110.56
-3587.13
-3243.32
-5965.6
-2074.1
-1374.81
-1228.45
-2580.73
237.602
377.68
799.37
87.2016
-4140.88
-1204.73
-7908.24
-816.475
-3861.25
-1293.35
-7682.86
-846.57
-2941.66
-779.923
-6988.01
-674.37
-2878.1
-638.079
-2694.02
-622.604
-2989.17
-910.161
-3208.02
-603.97
-6575.6
-857.851
-4031.88
-781.192
-3778.88
-607.693
-3919.15
-777.564
-4444.71
-670.886
-6903.56
-836.853
-808.799
-161.039
192.991
474.644
-270.938
-39.0784
76.0785
150.758
-796.342
-123.736
212.663
448.596
-182.905
40.0204
83.9426
93.5961
-814.171
-80.2803
217.385
399.742
-3.91601
263.558
411.155
458.297
580.776
513.491
585.388
616.48
1054.24
763.189
595.748
444.708
-352.109
138.427
422.447
713.395
-290.135
193.517
340.967
718.083
-881.091
-64.0526
281.069
595.627
-678.753
69.8461
307.86
879.337
142.061
338.121
452.798
608.032
61.0981
300.551
343.79
519.896
613.982
522.492
443.997
358.544
429.598
409.37
344.884
330.192
-1291.48
-281.122
229.408
772.548
-1618.47
-335.917
96.822
966.946
-1238.82
-241.886
249.275
786.975
-1555.95
-309.869
98.4769
956.042
-1152.06
-182.296
206.31
683.998
-1411.57
-260.355
66.8551
871.18
-767.453
-29.9848
192.464
500.621
-1461.24
-219.63
74.598
1083.56
-716.955
30.1621
219.854
684.535
-1511.36
-258.787
23.1446
682.748
-659.459
-99.1755
29.6881
173.899
-1411.75
-221.021
42.9331
685.337
-627.55
-86.7311
33.8063
171.808
-1209.97
-147.51
53.5677
666.107
-534.33
-55.9048
48.3375
179.5
-992.352
-86.4809
38.8951
598.332
-437.453
-24.5158
50.2555
172.773
-726.079
12.4242
89.293
513.576
-226.942
47.1328
67.8364
168.97
-323.63
146.433
239.865
475.604
104.184
222.112
201.661
237.156
-596.856
42.1122
157.157
489.45
-23.7428
142.454
134.179
203.357
6.69146
257.605
288.123
429.9
231.319
284.619
248.382
250.804
333.887
349.745
295.584
309.733
358.75
328.794
260.625
230.621
107.17
31.4961
13.2134
7.52958
5.56147
45.4607
15.1023
6.75444
3.91857
2.89517
125.834
46.0047
22.7276
13.8585
10.4515
72.7872
33.3764
18.3111
11.5629
8.8049
155.189
64.5461
34.2958
21.3595
16.1877
184.623
96.926
56.2654
36.0843
27.5993
204.73
111.897
65.6767
42.1601
32.1814
229.399
137.387
83.4433
54.2083
41.4791
185.507
85.2017
47.4296
30.0162
22.94
157.517
75.2552
42.4888
26.9324
20.583
167.454
70.0192
37.7965
23.5892
17.9169
138.845
70.2018
40.6494
25.8908
19.8286
199.53
97.8132
55.5358
35.3111
26.9451
161.428
85.0927
49.5439
31.7157
24.2763
191.015
111.712
67.4705
43.7609
33.473
159.113
92.3577
55.616
36.0251
27.5673
116.113
27.8486
10.6299
5.85606
4.27992
53.8424
11.1972
4.02322
2.15027
1.54148
125.474
36.3092
16.3034
9.63321
7.16985
57.2458
14.2812
6.11439
3.55953
2.61532
129.789
44.0796
21.943
13.3814
10.0104
65.1284
24.0713
12.8668
8.1186
6.10648
144.972
61.9644
34.1269
21.3418
16.0988
86.0666
37.2321
20.9109
13.1798
9.93499
123.165
69.2476
41.3167
26.5796
20.3377
-1740.93
-3272.48
-1783.88
-3273.4
-1931.81
-3289.7
-2111.88
-3369
-2038.43
-3381.34
-794.003
-1245.19
-1326.19
-2075.29
-395.092
-587.784
-107.299
-164.561
-8331.19
-1968.05
-447.121
-99.1211
-24.4443
-2240.2
-603.091
-159.589
-36.0371
-7.76657
-8190.19
-1922.72
-436.998
-96.1541
-23.9053
-2283.74
-672.876
-164.765
-38.0458
-9.3826
-7750.58
-1813.53
-411.603
-90.5933
-22.5751
-2209.89
-648.193
-158.426
-36.4323
-9.02402
-7039.94
-1638.76
-371.671
-81.8603
-20.4292
-2123.22
-611.926
-148.017
-33.798
-8.33724
-5882.24
-1364.4
-309.932
-68.4112
-17.1076
-1978.94
-558.165
-133.953
-30.4544
-7.50028
-2816.28
-680.952
-157.086
-34.9051
-8.74143
-953.53
-272.803
-64.9939
-14.5398
-3.57752
-4170.16
-995.391
-228.059
-50.4538
-12.6194
-1408.48
-398.984
-95.9357
-21.826
-5.41753
-1657.95
-404.056
-93.5939
-20.8902
-5.2396
-526.632
-156.853
-37.0779
-8.28861
-2.05911
-567.539
-137.558
-31.925
-7.14758
-1.79327
-201.696
-54.1756
-11.7165
-3.36771
-0.635424
210.468
-1017.63
-5261.35
898.601
-6313.61
-2768.35
-6109.4
-2799.27
-11089.6
-5905.87
-12436.9
-6587.46
-135.326
-538.12
-845.244
-996.059
-895.149
-368.467
-221.844
-833.842
-1265.67
-1397.18
-1126.38
-387.118
-115.018
-123.34
-431.849
-435.07
-617.874
-611.021
-596.077
-563.29
-533.823
-508.903
-418.971
-372.399
845.564
2199.22
3563.53
2524.97
2323.47
1120.55
801.903
2304.47
3724.9
4310.96
3595.9
1639.68
-122.043
-103.171
-78.1857
-48.7238
-16.5447
-485.994
-411.593
-312.52
-195.067
-66.2957
-763.325
-646.421
-490.802
-306.345
-104.118
-899.243
-761.245
-577.776
-360.533
-122.517
-807.973
-683.727
-518.645
-323.435
-109.864
-334.195
-283.761
-215.244
-133.798
-45.2863
-199.965
-168.946
-127.966
-79.72
-27.0662
-752.661
-637.043
-483.442
-301.649
-102.504
-1142.16
-966.474
-733.329
-457.553
-155.489
-1260.04
-1065.51
-808.065
-504.057
-171.282
-1015.05
-857.684
-650.053
-405.366
-137.738
-349.845
-296.26
-224.669
-139.949
-47.4859
-103.798
-87.8225
-66.6111
-41.5375
-14.1089
-111.374
-94.2997
-71.5759
-44.6598
-15.1745
-390.148
-330.554
-251.083
-156.761
-53.2825
-393.12
-333.126
-253.078
-158.026
-53.7162
-558.167
-472.863
-359.146
-224.214
-76.207
-551.945
-467.553
-355.084
-221.666
-75.3398
-538.439
-456.09
-346.328
-216.154
-73.4531
-508.569
-430.545
-326.77
-203.886
-69.2764
-482.037
-408.021
-309.463
-192.889
-65.4856
-458.885
-387.864
-293.87
-183.092
-62.1588
-378.428
-319.964
-241.911
-150.119
-50.7854
-335.436
-282.987
-213.823
-132.829
-45.0026
752.367
629.586
476.198
298.718
102.324
1948.82
1626.45
1230.15
774.017
266.501
3122.78
2590.92
1964.4
1250.46
438.596
2197.84
1819.78
1384.14
886.063
312.082
2054.21
1705.76
1290.98
811.169
263.638
1021.44
865.787
664.122
417.993
132.346
714.36
597.893
451.541
282.445
96.4925
2048.02
1711.49
1292.61
809.995
277.48
3290.99
2740.01
2070.08
1303.19
449.493
3784.42
3138.62
2372.64
1501.2
521.655
3156.63
2618.19
1981.32
1254.99
434.461
1454.77
1219.11
930.366
591.892
204.56
298.901
699.018
1000.51
1142.89
1029.98
505.599
448.138
1053.05
1467.95
1568.39
1252.79
470.558
244.163
232.447
556.006
540.223
730.577
705.749
689.245
635.672
616.435
521.826
556.602
415.838
-689.152
-1961.39
-3151.33
-1972.49
-1646.48
-378.667
-732.486
-2191.55
-3475
-3861.76
-2950.17
-870.282
270.414
229.509
174.656
109.214
37.1543
632.044
536.046
407.626
254.743
86.6379
904.418
766.826
582.958
364.243
123.867
1032.94
875.626
665.552
415.799
141.392
931.163
789.55
600.201
374.963
127.496
459.776
391.928
298.828
186.714
63.4131
405.34
343.935
261.677
163.608
55.6567
951.767
806.851
613.326
383.207
130.317
1326.16
1123.69
853.814
533.332
181.353
1416.12
1199.25
910.859
568.866
193.433
1130.63
957.057
726.714
453.843
154.335
426.204
361.977
275.41
172.055
58.4811
220.907
187.501
142.693
89.2262
30.3539
210.301
178.487
135.822
84.9234
28.8888
502.808
426.518
324.388
202.741
68.9523
488.541
414.414
315.178
196.981
66.9929
660.553
560.207
425.974
266.186
90.5216
638.053
541.067
411.375
257.044
87.4097
623.25
528.624
401.971
251.177
85.412
574.564
487.098
370.245
231.297
78.645
557.745
473.298
359.963
224.892
76.4542
471.568
399.666
303.678
189.645
64.4676
504.818
429.212
326.644
203.925
69.2488
376.069
318.873
242.254
151.182
51.3559
-609.378
-506.658
-381.435
-238.892
-81.8812
-1731.78
-1440.24
-1087
-683.96
-235.837
-2743.68
-2262.49
-1709.55
-1089.13
-383.623
-1674.75
-1352.51
-1009.62
-641.255
-226.086
-1406.59
-1123.2
-819.794
-498.859
-151.398
-309.893
-223.776
-143.001
-71.2278
-7.73966
-651.269
-544.062
-410.376
-256.63
-87.7036
-1945.8
-1624.7
-1226.61
-768.852
-263.54
-3062.49
-2543.5
-1918.61
-1207.65
-416.9
-3368.57
-2775.84
-2088.61
-1319.37
-458.894
-2553.54
-2087.27
-1561.44
-983.275
-339.7
-733.408
-581.332
-423.643
-262.506
-89.3503
-1390.51
-878.701
-204.008
728.872
1031.6
1312.59
630.584
-10645.5
-1613.14
-3056.06
-1466.61
297.288
-3942.02
886.888
2524.06
1215.24
-5760.72
-2595.75
-381.428
-495.953
-3302.69
-1206.02
-207.927
-976.023
2221.75
1416.12
-468.839
-111.414
-7599.81
-3530.19
-4160.76
-1999
-3473.52
-3219.54
-1019.77
1439.49
-318.691
-668.233
-444.946
-401.041
-525.706
-625.228
-538.513
-343.998
-238.647
-185.919
-106.152
-167.766
-131.528
-98.0808
-64.3449
-23.4847
659.349
559.192
424.838
265.114
90.0824
930.672
786.825
596.033
371.119
125.912
1184.24
1001.45
758.989
472.879
160.511
571.695
484.384
365.816
225.969
76.0049
-7674.79
-6930.83
-6331.8
-6526.29
-6939.1
-1032.9
-709.564
-871.338
-1048.08
-756.557
-2143.4
-1589.51
-1408.8
-1268.29
-801.913
-939.23
-624.354
-591.927
-547.362
-251.658
272.704
221.165
145.103
66.3262
11.9124
-3294.61
-2710.13
-2101.26
-1443.96
-587.834
802.265
671.262
494.957
295.487
95.0744
2197.98
1799.25
1333.42
823.338
279.341
1091.61
916.083
687.498
423.916
142.424
-4043.59
-3800.29
-3496.01
-3643.93
-3932.1
-1775.92
-1275.98
-1107.34
-966.246
-574.729
-294.21
-251.179
-244.367
-224.198
-114.051
-397.719
-321.618
-265.859
-202.573
-88.1143
-2758.35
-2239.82
-1734.81
-1184.32
-472.266
-1014.83
-827.673
-646.556
-443.367
-168.071
-155.488
-115.065
-89.2947
-67.083
-29.0025
-843.843
-694.971
-531.201
-345.913
-124.152
1985.24
1661.59
1248.19
772.9
261.283
1276.5
1075.98
810.38
500.664
168.607
-391.892
-319.766
-253.027
-177.12
-69.2869
-79.1696
-59.4928
-53.7201
-47.838
-22.4079
-4634.87
-3257.58
-2911.64
-2970.59
-2984.54
-2562.22
-1917.23
-1476.55
-1101.05
-540.729
-2769.6
-2195.22
-1795.36
-1531.73
-823.802
-1473.56
-1141.64
-881.758
-659.333
-329.356
-2917.77
-2364.6
-1810.11
-1208.47
-459.368
-2219.77
-1455.52
-1219.76
-1036.47
-497.43
-867.313
-706.227
-540.081
-356.584
-130.722
1299.5
1097.74
829.043
513.701
173.431
-242.857
-188.951
-158.527
-126.869
-56.1205
0.225042
43.9723
105.45
141.421
109.308
5.52193
-18991.6
-16761.5
-16024.4
-18261.9
-13913.1
-11011.2
-12571.1
-9546.99
-16411
-14349.1
-15118.8
-14188.8
-13263.2
-11290.3
-13928
-15609.8
-13947.6
-12865.6
-14510.8
-11720.8
-9928.69
-10516.4
-8439.73
-14699.4
-13021.2
-13539.7
-12301.2
-11719.8
-10955.5
-11274.9
-12241.2
-11215.8
-10184.2
-11141.5
-9730.92
-8353.23
-8788.55
-7559.56
-12288.9
-11116.3
-11437.6
-10389.9
-9945.17
-9202.79
-9428.49
-8533.26
-8026.78
-7190.61
-7623.84
-7200.54
-6456.85
-6535.64
-5992.54
-8825.49
-8895.67
-8325.63
-8375.19
-7419.35
-6703.42
-7427.97
-5451.38
-5209.56
-4632.73
-4833.17
-4821.79
-4365.59
-4319.25
-3997.84
-5838.78
-5819.64
-5578.83
-5435.94
-5075.89
-4584.34
-4944.56
-1961.62
-1891.65
-1677.48
-1736.79
-1781.63
-1666.5
-1584.29
-1479.15
-2217.21
-2205.01
-2072.66
-1967.11
-1908.37
-1751.83
-1869.56
-7320.61
-7226.8
-10843.3
-11682.2
-6912.86
-6153.06
-9525.7
-7759.19
-5843.23
-4481.98
-5804.95
-4439.15
-5846.66
-5582.63
-4499.07
-7315.96
-6952.11
-9654.9
-10525.2
-6467.98
-5872.74
-8407.71
-7261.66
-5852.41
-4036.62
-5753.27
-4238.45
-5275.74
-5067.05
-4590.23
-6717.35
-6415.63
-8203.26
-8790.17
-6044.65
-5642.99
-7353.76
-6529.05
-4914.34
-4456.99
-4902.34
-4664.95
-4598.45
-4588.36
-4794.13
-5473.73
-5281.99
-6171.73
-6475.57
-5028.07
-4717.54
-5725.87
-5242.21
-4781.16
-4090.85
-4702.46
-4327.48
-4413.19
-4363.08
-4364.37
-3809.7
-3698.1
-4096.14
-4247.92
-3442.93
-3196.34
-3866.49
-3559.99
-3399.09
-3186.6
-3320.57
-3318.99
-3113.47
-3041.6
-3130.35
-1424.65
-1383.99
-1500.34
-1548.68
-1281.94
-1180.48
-1424.17
-1314.36
-1118.45
-1174.6
-1192.72
-1263.89
-1158.11
-1118.34
-1147.06
7014.44
22685.8
5555.16
23758.2
4185.52
24606.8
6646.85
38028.1
8174.51
52307.9
8091.83
38034
7777.14
31520.2
8093.32
27547.3
4902.54
3015.03
13125.1
7760.41
4819.11
2594.84
14412.3
7150.58
5311.79
3818.4
16811.1
11770.9
4019.82
2869.45
16893.1
12209.7
9475.02
3991.47
8155.64
3618.27
3724.85
8809.35
32967.6
8948.11
11785.4
4004.35
42559.8
11576.5
11077.8
3855.35
23487.7
7296.58
12038.5
4208.92
20371.8
6484.96
5473.41
2714.08
8200.58
3180.01
5977.34
3236.34
8165.73
3113.6
7642.3
4344.52
7027.43
3033.21
10488.7
3754.19
3613.37
1256.69
11833.3
8149.68
7350.88
5348.58
13403.4
11014.7
7332.27
6347.33
6902
4614.67
9644.42
6379.85
4863.71
3562
2492.37
2038.03
4743.21
4098.38
2481.01
2387.88
4629.74
3007.27
2389.19
1519.43
6123.32
3314.93
4546.57
5533.8
8312.7
5907.36
6533.05
9421.12
4076.99
1921.78
2692.78
3182.26
2036.54
840.142
1167.45
1180.56
7116.31
12864.2
4848.57
14388.3
8439.03
12620.2
6024.28
15118.6
9643.08
11470.2
7800.5
14835.3
11751
14254.7
8627.56
8259.75
9089.82
14217.9
12893.1
12444.6
12648.1
18366.5
11547.4
8699.98
7391.84
8254.09
13085.3
14861.5
13223.8
17247.7
16464.2
13580.4
12534.2
17054.8
16160.7
11771.7
11425
16046.6
15610.8
10341.7
8059.85
9393.79
8090.48
10136.3
8919.88
10782.4
10223.5
14856.5
15063.8
9680.46
8300.7
9050.24
8522.07
9203.25
9561.68
10297.5
11372.8
13466.1
15357.8
7937.76
6220.01
5478.11
7010.45
10900.1
13354.1
7582.93
12045
4579.52
6069.69
6786.34
5572.87
1295.85
4663.1
689.989
1680.81
3882.54
8123.46
1447.51
2825.22
567.337
3911.34
335.878
1370.98
4469.25
4547.41
5075.96
3111.33
7047.93
5598.8
8291
5652.89
993.841
2486.5
2508.85
1398.32
1413.51
1846.94
2014.7
1516.62
10461.5
6321.61
1978.4
11846
6765.81
2208.35
9999.75
6240.87
2093.16
11672.6
6768.05
2203.2
9205.21
5724.46
1873.67
11419.2
6815.78
2271.62
5187.93
2750.83
724.805
6498.83
4256.07
1481.84
7653.81
5275.63
1817.18
8786.02
5655.19
1871.32
11332
7021.2
2456.11
6207.4
3429.3
1067.69
6038.82
4324.9
1624.41
7083.51
5228.68
1909.99
8872.58
6206.53
2208.67
11449.3
7088.57
2503.71
299.877
1995.27
2817.04
4072.19
2127.67
2457.39
5359.12
5098.76
582.043
1028.2
620.5
1067.63
489.383
1416.15
872.55
1859.11
3223.7
1580.77
4077.53
2356.75
2183.93
3803.18
3383.47
974.971
5962.28
1489.3
-1815.38
786.368
1825.12
1382.41
1282.11
1212.73
9940.11
4679.42
2708.61
1723.17
10078.4
4876.15
3405.95
2180.96
9964.95
5257.5
4959.32
3561.02
3540.27
2595.15
1800.41
1737.69
12539.2
11171.5
5919.12
6157.54
13316.7
12517.2
6575.97
6646.21
5348.54
5523.68
10918.1
9173.34
3554.84
3719.24
2022.46
2278.64
4070.43
4048.88
2267.66
2418.66
3158.37
3399.85
1809.89
2189.3
4848.28
3504.91
4875.86
3597.95
7528.38
4646.79
7238.92
4979.94
2949.45
2536.17
3093.56
2332.65
1687.88
1607.15
1972.98
1368.98
11938.2
8623.48
6215.99
6530.06
11853.9
8784.22
6255.66
6498.53
12269.4
9035.68
6345.79
6298.36
13761.1
14643.7
12733.4
8707.68
5188.46
13883.6
13092.1
12420.6
10514.7
7169.95
13017
11948.4
9729.34
7689.46
5063.41
7615.81
7004.47
7287.84
8574.81
7764.38
6807.05
7322.93
8425.36
7957.19
6622.59
7336.58
8237.24
10487.5
7391.1
10006.9
7022.46
8108.14
6664.72
7820.72
6866.88
6772.46
8102.95
8702.47
7551.96
7871.21
6931.44
6915.73
6376.61
6343.06
6457.76
5373.71
7725.5
7033.74
4775.18
4678.85
2784.94
9015.14
6951.12
6283.43
5031.99
3924.65
2397.23
5699.04
4286.79
4743.74
2244.7
1752.96
1012.05
4949.48
3569.2
1745.76
1443.51
4180.28
1904.29
1657.77
884.587
3415.08
3247.9
3166.66
4740.83
4760.02
4646.01
4065.46
6117.54
3395.61
2291.18
2254.04
3181.3
1058.74
535.501
297.549
637.751
4908.97
2047.16
602.553
5751.28
1484.22
393.15
4909.1
2186.32
669.158
5699.61
1525
423.674
4493.38
2123.06
546.756
5552.54
1540.06
358.87
4524.15
2251.84
479.815
4265.72
2035.58
466.386
4370.81
2087.05
559.062
4512.45
2110.03
439.282
5493.15
1498.76
222.589
5791.73
2872.04
746.127
5412.57
2680
723.696
5108.96
2520.74
729.884
5044.06
2139.76
519.018
5931.42
1387.12
335.686
1860.19
673.094
129.142
-224.035
767.805
293.816
78.2249
-46.332
1981.99
744.792
190.138
-138.82
984.351
415.102
197.558
92.3564
2134.35
831.727
288.64
-10.6229
1689.72
804.075
325.637
80.1835
1290.17
746.861
292.719
4.35244
1223.68
824.754
503.986
310.843
1776.34
800.232
256.357
-187.96
1532.04
679.202
302.235
-194.204
2103.41
823.524
265.166
-144.052
1911.63
750.859
298.955
-323.512
1428.93
750.596
314.662
-54.6078
1179.8
605.218
330.674
7.04775
1062.9
668.856
412.266
262.125
816.398
516.796
354.642
216.395
2394.48
817.359
124.972
-443.393
2402.88
758.199
173.378
-609.883
2394.01
831.441
150.003
-419.982
2325.63
737.595
183.308
-588.442
2351.15
836.903
229.827
-301.144
2169.75
699.271
228.645
-483.286
2060.14
774.77
321.482
-46.5637
2379.39
784.694
326.521
-565.976
1852.51
696.473
325.761
-132.731
1930.39
538.617
157.98
-417.61
775.266
196.656
45.0503
-88.576
1978.13
571.395
178.693
-394.554
799.805
210.8
58.2009
-71.8318
2004.99
612.16
224.748
-346.656
809.946
228.664
76.5108
-52.4134
1804.6
578.239
259.983
-274.12
783.007
236.275
105.132
-17.9566
1649.45
576.459
288.751
-159.82
696.153
249.181
144.672
29.7148
1156.98
471.17
234.331
-43.8677
653.588
328.887
205.839
112.643
1335.26
475.553
229.391
-112.853
658.526
283.917
175.27
71.4534
933.151
459.484
263.012
46.4911
589.435
349.847
230.954
152.777
660.688
420.79
295.752
189.964
495.479
351.954
255.375
198.178
-20.8065
8.64511
9.14233
6.62834
5.18531
-3.56073
5.71941
5.06155
3.58807
2.8002
11.6074
26.4489
19.595
13.3544
10.3003
31.0972
25.6356
16.9464
11.251
8.61553
46.1161
47.2152
32.1984
21.628
16.6427
127.144
86.7184
54.8578
36.085
27.5903
153.635
102.701
64.8821
42.7659
32.798
222.83
136.167
83.6629
54.6841
41.8783
81.7815
69.1009
45.5337