/*--------------------------------*- C++ -*----------------------------------*\
  =========                 |
  \\      /  F ield         | OpenFOAM: The Open Source CFD Toolbox
   \\    /   O peration     | Website:  https://openfoam.org
    \\  /    A nd           | Version:  11
     \\/     M anipulation  |
\*---------------------------------------------------------------------------*/
FoamFile
{
    format      ascii;
    class       volScalarField;
    location    "2.7";
    object      gradTx;
}
// * * * * * * * * * * * * * * * * * * * * * * * * * * * * * * * * * * * * * //

dimensions      [0 -1 0 1 0 0 0];

internalField   nonuniform List<scalar> 
5712
(
-6450.56
-8243.81
-15346.8
-22386.3
-22832.4
-39420.9
-17587
-44793.4
-14333.3
-31484.4
-21423.8
-32574.5
-19239.7
-25197
-8454.93
-9658.81
-14346.4
-16428.1
-18582.1
-18433.8
-14663.7
-18151.3
-21613.2
-19424.1
-5227.15
-3907.57
-6505.75
-4357.06
-12104.1
-9635.15
-20702
-14946.2
-16063.3
-16672.7
-17786.4
-16881
-6169.6
-4868.76
-38100.1
-51017.5
-24609.6
-30222
-51335.4
-66603.4
-26573.3
-30417.1
-28197.4
-39849.1
-24585.9
-32613.7
-14348.2
-23171.8
-2730.8
-918.622
-2880.49
-1036.45
-8251.31
-3323.49
-11348.6
-4165.61
-8040.54
-3090.15
-8609
-2756.37
-14700.5
-4671.5
-18981.2
-6395.52
-23408.2
-11589.2
-21426.6
-12711.2
-22040.3
-14255.1
-19376.4
-14617.8
-16779
-9960.46
-16758.5
-8506.35
-22099.8
-14174.1
-22146
-14316.4
-20453.6
-15494.2
-20699.4
-15576.3
-18130.7
-11532.1
-18782.9
-11825.3
-17102.9
-7375.16
-7872.13
-9542.3
-17175.6
-8049.77
-6839.87
-9628.07
-18120.8
-7353.63
-8945.41
-9639.59
-19024.6
-7538.01
-9742.56
-10087.2
-3539.77
-3860.14
-1183.95
-2289.16
-10394.1
-10977.9
-3986.21
-7000.59
-13309.9
-14827.5
-6336.11
-10741.8
-12231.4
-1199.26
-13349.2
-16319.4
-8780.8
-864.277
-7508.55
-11920.1
-19137.4
-13039.3
-9646.7
-11641.7
-10090.3
-8627.73
-13492.2
-3426.45
-2844.53
-1950.28
-1938.51
-9688.21
-8237.67
-5779
-5507.86
-12134.9
-10386.6
-7552.45
-6794.07
-5885.32
-7458.09
-12089.9
-12492.6
-13806.7
-12579.7
-15546.5
-13597.5
-10351.5
-8705.53
-8965.67
-9542.83
-11797.3
-9472.79
-10700.5
-7940.98
-9210.48
-6475.87
-10616.7
-7012.74
-10145
-4932.78
-8677.05
-9498.51
-12458.1
-16361.6
-13694.6
-19999.1
-6875.27
-7728.55
-8963.46
-3093.05
-7720.2
-14946.9
-7316.85
-15991.1
-13551.8
-24663.3
-13784.9
-26135.7
-5799.01
-12782.5
-5255.82
-13589.4
-7980.04
-6129.34
-11037.3
-4453.2
-8276.4
-1879.07
-9658.81
-965.933
-7645.41
-9097.47
-11553.8
-5379.87
-6307.51
-10696.7
-10208.3
-7034.55
-2290.63
-2037.29
-1850.81
-1639.94
-1517.76
-1374.06
-6813.16
-5685.67
-4989.82
-4335.52
-3555.98
-3129.28
-8441.3
-7386.86
-6871.03
-5235.45
-4357.2
-4154.6
-6634.48
-5968.38
-5857.88
-10974.3
-8520.06
-7251.46
-10227.8
-7727.9
-6356.24
-10759.7
-8652.48
-7596.38
-6531.76
-4403.39
-3484.45
-15798.3
-13891.6
-12177
-10055
-8521.77
-7199.24
-8818.41
-7003.55
-5709.59
-7313.73
-5404.59
-4253.91
-7374.11
-4181.77
-2425.76
-10224
-13889.4
-8060.11
-10454.1
-10921.2
-16088.1
-9732.12
-14218.7
-62.5022
-749.53
483.358
-111.235
-2971.04
-3380.78
-1232.46
-673.226
-715.635
-2438.89
-9332.51
-13659.9
-6638.6
-3601.76
-9735.21
-9657.72
-14911.6
-16415.4
576.173
4020.94
-7495.67
-7069.64
-7034.63
-5429.53
-1037.95
-559.198
-658.892
-258.907
-2035.71
-266.954
320.186
827.039
-9213.91
-2473.11
-6194.17
-1664.34
-8894.16
-2739.56
-10757.4
-3502.98
-8745.78
-11864.9
-8098.43
-11590.4
-13909.5
-14788.6
-13286.9
-14028.5
-5688.05
-9519.94
-6551.69
-9444.64
-8587.83
-11179.9
-9469.8
-11310.4
-13841.4
-13793.6
-14496
-13866.7
-5738.72
-9229.96
-6240.16
-9416.58
-61.9461
-1571.66
-7665.54
-5052.88
509.416
-1153.92
-7103.75
-4483.27
-504.177
-1809.55
-7848.88
-5494.08
-958.701
-2080.14
-7911.3
-5706.32
656.025
763.366
-192.822
-53.0941
2828.73
2883.21
141.977
281.847
462.634
1872.94
-1859.64
-1238.37
10214.7
9442.04
5514.64
4147.21
279.318
10381.5
10792.4
4298.38
6315.64
645.887
-10095.4
-8028.79
-7292.79
-6994.71
-4489.56
803.591
769.054
-2.9698
-128.481
2542.18
2584.29
-22.3035
-310.995
2543.39
3212.35
-902.939
-1310.46
5129.63
2397.73
8222.68
5247.35
3638.13
2817.02
4069.08
3611.81
-719.633
-1775.22
-3732.15
-2363.26
-1054.91
1041.12
-1123.99
710.798
-1974.51
-597.084
-2537.61
-2937.46
-5302.9
-4886.12
-10038.6
-6103.98
-8087.54
-8204.33
-12278.8
-9989.42
-8103.09
-4875.45
-4121.6
-4134.03
-11816.2
-5281.82
-12996
-5918.59
-13690.6
-10196.1
-14610.8
-10916.7
-9786.65
-4012.32
-10954.1
-4632.96
-6676.38
-5466.61
-5488.59
-8157
-4417.58
-5042.57
-4730.95
-7567.94
-7659.99
-5442.95
-6180.06
-9347.05
-9218.97
-5916.19
-7593.89
-9661.24
822.237
904.949
1030
-4.85903
313.115
358.62
3017.22
3285.22
3314.2
165.048
901.191
919.88
3789.08
4345.51
4506.88
-770.41
863.526
1203.22
1337.38
1161.86
862.988
3979.26
4126.9
3881.49
3259.07
3769.81
3741.63
4030.09
4454.98
4394.12
-1634.98
360.911
529.167
-3418.76
-1919.21
-980.73
1108.13
2350.75
3015.13
1020.61
2644.4
3355.9
385.055
2175.08
2696.98
-2717.9
534.684
931.084
21.5736
41.4743
58.9389
90.7275
275.112
162.708
139.616
140.678
-10.7898
80.5981
199.589
321.682
443.618
300.295
342.818
384.205
-268.76
27.8936
282.478
568.916
146.54
245.089
332.277
390.825
29.0768
149.125
166.391
168.16
-232.844
-6.18903
133.484
233.869
-1038.54
-213.739
122.361
361.673
-1624.35
-378.448
23.1762
611.391
-739.249
-93.5126
206.13
517.689
-1342.7
-289.358
4.29542
537.88
-1098.39
-253.924
145.587
447.527
-1816.15
-449.106
21.5574
717.135
-1221.13
-336.167
129.732
528.449
-1953.77
-513.753
-1.84749
750.116
0.190733
23.3683
50.4771
112.822
30.9161
32.5519
31.9787
103.774
51.9649
81.4069
153.657
303.082
152.156
111.864
97.4001
280.23
-467.083
-58.8406
171.327
519.672
-234.566
24.32
131.079
495.313
-129.864
120.565
251.312
517.8
-59.7513
96.3337
114.498
499.749
-1167.88
-223.823
45.6464
697.421
83.6008
46.9447
36.5372
77.8584
169.52
69.7153
37.9113
36.1373
165.096
110.975
83.0402
201.981
430.18
185.067
96.7014
93.5247
74.496
121.682
116.512
333.079
535.02
259.333
145.905
147.726
-148.28
108.145
146.645
462.109
398.828
278.769
174.089
188.467
-636.029
6.20475
88.0085
448.441
77.6621
239.026
164.169
195.066
-1357.38
-138.585
77.8947
520.664
-452.065
58.3715
108.137
184.387
-1065.65
-47.1915
90.1451
486.352
-292.375
138.516
141.293
198.42
-1626.65
-252.649
38.4402
564.154
-598.931
-21.8171
71.5181
172.483
-1828.68
-367.607
-17.3099
557.004
-736.921
-111.118
22.9136
148.977
40.6857
18.7178
10.1145
6.24337
4.68537
53.8963
28.8896
16.6579
10.5411
7.96283
97.0736
43.5971
23.5043
14.5871
11.0288
122.382
64.818
37.4035
23.7831
18.0239
128.617
54.5972
29.0715
18.0249
13.6634
164.975
86.0446
49.7574
31.8072
24.1868
86.9135
44.1881
25.436
16.2879
12.3928
61.0366
25.7167
13.5843
8.46423
6.3798
130.078
55.9834
30.3199
18.9938
14.3448
61.8871
22.8571
11.6805
7.16921
5.37705
137.137
65.2638
36.9442
23.4853
17.8391
58.4018
22.7493
11.9761
7.40594
5.5478
99.6874
36.4468
18.3277
11.2176
8.42444
58.5298
20.3917
10.2163
6.26514
4.70727
85.6416
23.0566
9.35415
5.24461
3.80289
47.2209
10.8539
4.01623
2.1634
1.54082
33.8109
14.0987
7.35194
4.45182
3.31522
24.4236
11.1954
6.09967
3.74295
2.79662
82.6008
35.4728
18.9607
11.639
8.74024
63.1043
29.5635
16.3812
10.1408
7.60276
115.708
43.6891
22.4138
13.5702
10.1628
85.9092
40.8828
22.8897
14.2182
10.7315
105.063
50.2541
28.619
18.1267
13.788
58.7353
31.241
18.0634
11.3557
8.65152
54.7312
27.6708
16.1005
10.2992
7.83422
-354.631
-467.469
-810.835
-1148.68
-876.142
-1446.28
-385.715
-1199.78
246.236
-301.672
-763.277
-1234.24
89.1101
16.4303
-1136.13
-1776.83
-1415.82
-2013.28
-585.495
-135.333
-30.3828
-6.68981
-1.67224
-207.024
-89.6277
-12.8198
-3.3473
-1.42808
-1799.04
-414.07
-93.2806
-20.4379
-5.11538
-497.955
-131.673
-31.582
-6.60758
-1.75825
-3029.34
-698.772
-157.819
-34.6862
-8.66176
-785.071
-221.564
-53.1278
-12.2021
-3.04187
-4079.6
-943.887
-214.016
-47.1709
-11.7913
-910.964
-277.871
-68.8079
-15.9954
-3.98241
-5119.24
-1196.21
-273.069
-60.4784
-15.178
-1000.57
-335.862
-85.7073
-20.2022
-5.09032
-6116.16
-1473.73
-341.063
-76.1603
-19.1933
-1514.6
-461.746
-113.632
-26.0004
-6.48482
-5674.36
-1361.88
-313.775
-69.7806
-17.5323
-1192.29
-393.729
-99.6539
-23.23
-5.79881
-6324.67
-1526.88
-354.083
-79.1939
-19.9875
-1706.49
-504.561
-122.446
-27.6423
-6.87848
-6601.32
-1580.66
-367.123
-82.0797
-20.7047
-1765.96
-524.281
-128.423
-26.9365
-7.09463
-516.102
-6780.63
-6190.14
-2234.54
1597.89
2735.79
7640.56
11173.3
1689.47
8189.73
-1577.74
2561.98
2459.51
4842.89
9113.12
12898.7
13805.2
17319.8
5633.51
7295.55
-19704.6
-14295.3
-4904.93
-3892.32
-2805.55
-4022.71
-3709.5
-12203.9
-11844.9
-10058
-11023.4
-9193.12
-6564.81
-8490.54
-5706.12
-4830.59
-5901.42
-4052.24
-19735
-10379.7
-3748.08
-6365.31
-8539.16
-5995.05
-6592.29
-4922.04
-3028.35
-4288.7
-4517.81
-4875.27
-19400.2
-12794.8
-12195.6
-8847.27
-8842.73
-9241.77
-4070.46
-5390.01
-6751.83
-14232
-12531.2
-10789.5
-10293.8
-9177.24
-9349.1
-6476.26
-5143.01
-4070.74
-2161.67
-4338.78
-3606.95
-2711.06
-1694.13
-580.71
-3480.07
-2917.56
-2198.75
-1368.13
-465.083
-2494.11
-2075.83
-1552.05
-959.106
-324.649
-3599.96
-3018.01
-2270.91
-1409.07
-477.698
-3296.42
-2745.36
-2057.23
-1275.61
-433.106
-7933.4
-6185.48
-4984.63
-4795.65
-5371.75
-6537.22
-4888.55
-3574.02
-3053.47
-2180.99
-6294.42
-3793.51
-2677.53
-1921.98
-952.468
-5688.94
-3875.82
-2625.8
-1961.63
-1182.85
-4299.38
-2700.63
-1703.7
-1209.27
-604.027
-5207
-3901.24
-2708.25
-1629.22
-564.141
-5779.88
-3709.95
-2441.31
-1480.21
-562.768
-3743.02
-2226.29
-1333.4
-724.792
-246.682
-3986.8
-3084.09
-2178.62
-1308.38
-442.927
-4716.12
-3525.71
-2409.62
-1408.16
-469.03
-3379
-2633.8
-1864.04
-1113.69
-373.002
-13191.3
-10220.2
-8467.43
-7797.94
-7712.31
-7681.62
-5608.04
-4163.67
-2886.17
-1332.38
-3125.87
-2453.57
-1765.45
-1082.61
-374.985
-5405.82
-4335.81
-3192.5
-2000.27
-706.134
-7026.29
-5550.88
-4124.37
-2686.27
-1030.44
-5117.91
-4142.11
-3089.32
-1963.95
-701.819
-5722.21
-4691.33
-3514.73
-2219.72
-778.548
-4291.78
-3518.4
-2618.69
-1631.84
-561.643
-2614.39
-2109.94
-1537.16
-935.225
-315.146
-3780.33
-3120.36
-2319.47
-1430.57
-484.806
-3849.68
-3074.67
-2230.88
-1362.7
-464.005
-4229.77
-3445.29
-2545.58
-1575.52
-539.827
-13654.6
-11507.3
-9844.17
-9062.69
-8209.54
-8944.34
-6471.11
-5082.2
-3871.01
-2032.41
-9073.51
-7272.5
-5646.9
-4284.79
-2140.39
-6996.11
-5351.78
-4084.07
-2830.79
-1177.15
-7408.04
-5962.09
-4495.29
-2950.99
-1122.62
-7249.2
-5499.64
-4169.47
-2877.7
-1182.79
-3503.45
-2843.6
-2110.1
-1323.63
-462.906
-4757.34
-3938.79
-2943.19
-1827.01
-622.465
-5825.83
-4744.23
-3533.85
-2223.17
-777.634
-5425.57
-11029.9
-11527.5
-31494.4
-11389
-42230
-6200.7
-15020.2
-11403.3
-8819.7
-18885.8
-15767.4
-11408.2
-10771.9
-21228.9
-16853
-3989.26
-2959.77
-7702.6
-5284.6
-8944.33
-6735.51
-23940.4
-17665.5
-14754.1
-11223.9
-15157.6
-9024.55
-1172.09
-3639.12
-39297.2
-51499.9
-23786.3
-30076.5
-52020.5
-66876.1
-25667.1
-30197.8
-29247.7
-40386.7
-23841
-32554.8
-15772.6
-23842.9
-1898.84
-499.93
-3329.16
-1135
-6458.94
-2876.97
-13087.4
-4721.03
-2849.73
-1611.36
-7121.19
-2235.71
-14729.3
-4622.86
-19155.2
-6444.49
-16160
-8360.29
-18573.6
-11055.6
-14791.2
-10579.5
-16549
-12856.5
-14780.5
-8650.98
-11713.5
-6034.1
-20995.3
-13425.9
-21869.5
-14111.4
-19329
-14728.6
-20399.1
-15367.7
-17392.9
-10924.4
-18607.9
-11657.3
-16141.8
-7107.35
-7016.25
-9225.13
-14453.4
-7260.25
-5246.21
-9049.76
-17861.3
-7287.07
-8546.12
-9483.31
-18993.1
-7533.02
-9629.8
-10041.4
-1093.39
-980.023
-262.822
-1152.34
-4439.85
-4581.39
-2765.67
-5465.47
-2471.56
-3081.88
-4283.93
-8086.61
-11933.4
-9630.89
-9170.17
-11398.9
-7471.75
-7596.68
-8086.25
-6716.3
-13186.2
-11355.5
-11346.3
-9442.9
-6514.21
-5557.36
-12199.2
-1055.72
-793.143
-586.958
-657.69
-4124.76
-3282.28
-3479.59
-3065.86
-582.325
520.314
-4107.45
-3224.59
-10105
-10737.4
-9425.4
-8626.03
-6950.3
-5052.29
-9070.5
-7234.43
-8046.66
-6305.45
-11465.9
-11704
-9765.42
-7687.62
-7194.01
-4925.61
-6309.21
-4026.25
-9368.62
-5720.68
-9202.12
-5086.96
-8199.17
-9369.17
-12958.7
-17267.8
-13665.6
-19960
-6251.03
-7456.53
-7597.37
-2906.15
-7548.54
-14793.1
-7276.8
-15934
-13493.8
-24752.6
-13762.7
-26114.3
-5564.78
-12594.1
-5200.41
-13532.1
-7512.73
-5948.03
-10841.2
-4416.45
-7251.06
-1822.98
-9332.78
-1248.94
-7458.98
-8975.47
-11465.1
-5351.04
-6258.58
-10657.6
-10184.7
-7019.84
-783.675
-729.03
-528.052
-610.375
-2505.02
-1830.83
-2258.7
-2054.48
1075.7
603.34
-2648.73
-2947.19
-10638.3
-10113
-7634.5
-6615.96
-4016.71
-3398.33
-5673.25
-4690.67
-5300.37
-3876.61
-18214.1
-15999
-7901.91
-6771.25
-5955.14
-4575.67
-4892.79
-3180.49
-5184.29
-2285.89
-5579.57
-9170.26
-4890.82
-9261.62
-8212.25
-10289.1
-9195.06
-12542.5
-999.496
-738.587
-786.738
-676.441
-3639.86
-2630.36
-2989.76
-1718.24
-1461.12
-1736.44
-8331.6
-8964.89
-4694.94
-4240.1
-9246.87
-9552.15
-14114.8
-16195.3
304.597
3813.88
-7349.84
-7108.85
-6958.79
-5488.96
-1090.23
-994.738
-1177.26
-975.497
-1808.18
-1273.21
-683.723
-596.038
-8163.59
-3891
-6932.29
-3265.79
-9220.3
-3703.16
-10900
-3899.11
-5444.21
-10267.9
-7007.55
-10747.1
-8613.55
-11567.2
-11258.4
-12536.2
-5326.48
-9352.53
-4843.3
-9311.29
-8154.98
-10839
-9343.66
-11221.2
-12994.4
-13172.7
-14255.2
-13698.9
-5678.02
-9194.8
-6237.86
-9417.64
-706.515
-2444.26
-8118.44
-5743.33
-688.444
-2528.84
-8037.59
-5498.63
-988.164
-2425.61
-8104.44
-5919.04
-1159.01
-2328.82
-7988.58
-5853.23
-1096.54
-1210.77
-1037.74
-1135.2
-2165.32
-2230.63
-1529.61
-1679.12
-8474.43
-7844.64
-4102.2
-4179.05
-3818.12
-5248.76
-4152.77
-467.219
-2021.9
-1359.78
-1449.21
-3661.36
2526.78
-1088.86
-13675.5
-11744.7
-10763.6
-9509.56
-6166.29
-1222.43
-1111.87
-1289.18
-1630.33
-2222.52
-1755.7
-2165.14
-2888.09
-8222.58
-8160.37
-4631.26
-6041.94
-5059.8
-6716.88
-3225.85
-5156.09
-4952.96
-5405.89
-1321.38
-1679.18
-3225.72
-4784.32
-9652.48
-7954.81
-7708.41
-5687.19
-6851.15
-4922.46
-6229.85
-4609.67
-4793.94
-5321.4
-8458.58
-8380.74
-11359.3
-7376.22
-10421.1
-11216.3
-13038.8
-10999.3
-9698.27
-6115.56
-7181.58
-7203.76
-12342
-6076.15
-13133.4
-6113.12
-13907.4
-10852.9
-14655.4
-11058.9
-10527.3
-4793.15
-11164.1
-4842.25
-8201.96
-6600.43
-6853.44
-9442.19
-7032.74
-7533.3
-6693.09
-9642.33
-8462.19
-6186.67
-6959.48
-10169.9
-9470.53
-6151.18
-7846.74
-9897.83
-909.129
-780.262
-1181.67
-855.588
-1485.8
-1746.62
-1764.24
-1263.9
-8010.5
-7011.9
-4074.16
-1804.42
-7893.4
-7500.72
-6206.8
-5583.65
-5245.53
-4486.01
-1975.37
-2001.02
-4561.67
-2032.8
-8651.84
-7418.53
-4950.99
-3892.57
-3915.44
-2408.45
-2978.77
-1250.06
-4775.33
-127.562
-253.214
-117.535
-40.407
25.9247
-238.692
-151.552
-59.1867
9.98064
-683.915
-305.879
-19.2606
191.464
-619.064
-362.886
-66.8134
114.789
-1117.5
-452.164
20.5789
439.109
-1102.72
-548.364
-195.479
11.6276
-755.119
-369.398
-182.449
-59.4624
-577.876
-241.892
-26.3149
126.231
-1668.4
-591.01
-132.57
167.954
-1994.14
-570.389
-86.6984
586.773
-1604.09
-569.137
-93.2499
299.414
-1811.93
-513.559
-114.684
537.951
-1556.97
-543.815
-41.4292
332.991
-2066.06
-587.457
-66.5396
680.307
-1409.69
-459.597
48.6448
477.34
-2045.35
-566.713
-36.0991
736.08
-235.083
-96.2676
-14.9831
81.0094
-202.735
-73.5091
-28.6396
78.2023
-606.265
-251.759
-26.5283
207.618
-509.452
-193.84
-76.9604
201.505
-1198.24
-419.631
-11.0129
454.262
-1089.86
-366.177
-85.783
418.606
-1328.89
-498.242
-99.5497
331.567
-1005.98
-347.69
-116.598
467.541
-1827.13
-513.257
-99.8726
738.619
-145.603
-54.9798
-17.127
50.0706
-65.3253
-38.4484
-18.5158
-0.628858
-439.326
-159.009
-67.2076
121.013
-217.531
-115.123
-63.4553
-10.2414
-781.29
-264.604
-101.905
219.155
-447.351
-202.216
-100.09
-9.67707
-1190.03
-381.527
-130.673
330.333
-789.488
-298.72
-133.412
-4.27988
-1571.4
-458.67
-196.869
286.193
-1070.34
-361.938
-173.258
-26.0094
-2107.48
-595.422
-209.794
358.233
-1066.88
-336.649
-141.348
15.445
-2028.72
-584.387
-240.537
299.574
-1177.88
-375.047
-166.618
-11.4176
-2082.9
-545.026
-149.171
461.187
-957.945
-270.817
-87.5961
69.5649
-1978.73
-466.579
-81.5462
521.666
-849.819
-192.41
-29.5911
115.319
-8.49644
-13.0861
-9.60739
-6.63929
-5.177
-33.8503
-25.2733
-16.5418
-11.0864
-8.58526
-17.1297
-29.8481
-21.9474
-15.0867
-11.6853
-73.1334
-55.9227
-36.6453
-24.4708
-18.9036
-11.5397
-35.9372
-26.9182
-18.522
-14.3118
-95.2962
-73.542
-47.9266
-31.8251
-24.509
-46.1404
-36.8615
-24.1339
-16.005
-12.3243
-7.23703
-15.9488
-11.9407
-8.1896
-6.3904
-23.6243
-38.952
-27.8953
-18.946
-14.6946
4.342
-13.212
-10.4952
-7.29057
-5.69254
-58.4034
-53.3177
-35.3338
-23.5376
-18.1337
-2.79614
-15.1139
-11.213
-7.6964
-6.00809
10.9612
-18.9488
-15.7536
-11.0218
-8.61075
8.41973
-10.659
-8.82664
-6.15084
-4.80421
45.0486
-2.38568
-6.36392
-5.06014
-4.14078
30.4166
0.250189
-2.5428
-2.14324
-1.7884
-1.23868
-9.22106
-7.14247
-5.01534
-3.93122
-7.94802
-8.99055
-6.24251
-4.28385
-3.34083
-12.9724
-25.8771
-18.8098
-12.9716
-10.087
-27.2019
-25.489
-17.0845
-11.5931
-9.01034
6.70966
-28.1041
-21.9559
-15.3683
-11.9816
-44.4292
-37.1157
-24.3384
-16.4335
-12.6968
-53.3298
-44.2197
-28.6378
-19.0612
-14.6465
-48.5985
-31.0339
-19.4235
-12.9466
-9.92015
-36.7893
-25.5718
-16.0341
-10.5567
-8.11138
-66.6697
-202.445
-127.231
-517.919
-83.9006
-717.351
188.848
-654.814
447.247
-127.36
-772.369
-1248
69.1059
-93.7023
-1143.32
-1777.96
-1418.2
-2012.92
-569.372
-134.217
-30.3175
-6.69176
-1.67426
-153.55
-83.1921
-11.6283
-3.18065
-1.41473
-1759.94
-411.395
-93.1616
-20.4517
-5.12284
-369.851
-112.044
-28.5872
-6.14608
-1.68272
-2969.32
-693.628
-157.401
-34.6645
-8.66405
-639.347
-198.586
-49.5104
-11.6409
-2.94454
-4008.72
-935.878
-213.032
-47.0444
-11.772
-804.676
-259.414
-65.6763
-15.4737
-3.88614
-5059.14
-1187.22
-271.64
-60.2448
-15.1335
-961.587
-325.91
-83.6609
-19.8178
-5.01338
-6091.56
-1467.79
-339.771
-75.8987
-19.1348
-1515.44
-460.802
-113.273
-25.909
-6.46165
-5638.82
-1354
-312.214
-69.4864
-17.4708
-1191.48
-390.108
-98.613
-23.0003
-5.74815
-6309.43
-1523.11
-353.226
-79.0146
-19.9461
-1706.3
-504.211
-122.316
-27.6098
-6.87014
-6596.17
-1579.39
-366.827
-82.0165
-20.69
-1765.78
-524.183
-128.39
-26.9304
-7.09285
-540.97
-6710.3
-5949.08
-2200.6
-1556.8
-937.855
-3668.84
-2689.45
-6294.41
-5886.55
-2989.37
-2260.03
-419.69
-639.817
-1092.24
-1762.21
-2619.74
-3575.61
-301.905
-645.378
-1336.17
-2312.15
-3454.59
-4593.04
-319.899
-147.5
-546.979
-375.049
-1002.58
-834.844
-1662.99
-1548.83
-2371.56
-2288.91
-3074.16
-2789.49
-4381.5
-4892.24
-5259.14
-7727.04
-8573.58
-9398.83
-5513.42
-6000.04
-5911.96
-5344.44
-4536.12
-3939.3
-379.28
-321.457
-244.27
-152.561
-51.8673
-577.88
-489.456
-371.692
-232.036
-78.8679
-985.852
-834.384
-633.207
-395.115
-134.272
-1589.05
-1343.53
-1018.72
-635.347
-215.868
-2358.77
-1991.27
-1508.1
-940.028
-319.356
-3211.24
-2704.33
-2044.85
-1274.07
-432.975
-272.72
-231.05
-175.503
-109.578
-37.2462
-582.641
-493.252
-374.411
-233.661
-79.4079
-1205.52
-1019.87
-773.708
-482.695
-164.023
-2084.04
-1761.32
-1335.16
-832.649
-282.916
-3109.03
-2623.66
-1986.78
-1238.57
-420.867
-4123.9
-3472.56
-2626.29
-1637.07
-556.564
-289.187
-245.154
-186.325
-116.391
-39.5777
-133.343
-113.042
-85.9156
-53.668
-18.2493
-494.19
-418.699
-318.045
-198.584
-67.5074
-338.892
-287.162
-218.153
-136.221
-46.3084
-905.279
-766.487
-581.866
-363.149
-123.421
-753.94
-638.461
-484.74
-302.55
-102.826
-1500.18
-1268.87
-962.34
-600.226
-203.932
-1397.28
-1181.86
-896.298
-558.964
-189.893
-2136.14
-1803.82
-1366.16
-851.37
-289.163
-2061.55
-1740.47
-1317.65
-820.735
-278.657
-2761.11
-2324.74
-1756.71
-1093.56
-371.358
-2504.71
-2107.42
-1590.63
-988.807
-335.438
-3917.8
-3286.78
-2480.58
-1546.37
-526.462
-4339.6
-3618.08
-2725.53
-1704.72
-584.021
-4594.44
-3791.15
-2853.7
-1804.01
-629.908
-6547.55
-5314.68
-4022.39
-2624.29
-972.422
-6872.99
-5441.06
-4171.82
-2884.05
-1209.46
-7215.27
-5613.99
-4348.15
-3135.61
-1429.25
-4932.51
-4140.81
-3127.43
-1950.77
-664.276
-5338.03
-4462
-3366.01
-2104.56
-719.543
-5212.51
-4329.96
-3264.59
-2053.18
-708.717
-4637.22
-3814.91
-2880.14
-1837.04
-649.464
-3810.48
-3081.01
-2338.8
-1539.93
-577.884
-3191.46
-2532.97
-1935.69
-1320.48
-528.38
-441.967
-707.795
-1209.18
-1932.77
-2851.39
-3855.68
-333.366
-741.176
-1498.69
-2540.05
-3733.52
-4884.6
-341.426
-166.156
-612.916
-433.208
-1117.32
-939.334
-1834.22
-1709.86
-2617.82
-2564.19
-3389.44
-3202.52
-4670.44
-5158.62
-5502.3
-7872.52
-8636.78
-9418.31
-5759.18
-6144.34
-5934.07
-5267.78
-4430.34
-3891.31
-399.525
-338.735
-257.495
-160.87
-54.7015
-639.706
-542.268
-412.155
-257.479
-87.551
-1092.37
-925.553
-703.206
-439.206
-149.333
-1744.85
-1477.35
-1121.84
-700.493
-238.16
-2571.27
-2174.72
-1650.21
-1030.21
-350.29
-3470.1
-2929.81
-2221.14
-1386.77
-471.804
-301.31
-255.44
-194.163
-121.298
-41.2438
-669.741
-567.627
-431.374
-269.469
-91.6258
-1353.54
-1146.54
-870.944
-543.935
-184.941
-2292.2
-1940.08
-1472.9
-919.664
-312.69
-3364.92
-2844.59
-2157.97
-1347.21
-458.139
-4393.33
-3707.22
-2809.74
-1754.36
-596.978
-308.728
-261.815
-199.065
-124.389
-42.3042
-150.27
-127.46
-96.9297
-60.577
-20.6043
-554.116
-469.843
-357.192
-223.18
-75.8984
-391.712
-332.205
-252.601
-157.849
-53.6835
-1009.73
-855.822
-650.402
-406.291
-138.153
-849.04
-719.772
-547.101
-341.795
-116.225
-1656.58
-1403.18
-1065.82
-665.596
-226.299
-1544.56
-1308.55
-994.068
-620.808
-211.068
-2362.01
-1998.77
-1517.15
-947.148
-322.012
-2314.25
-1958.81
-1486.94
-928.228
-315.544
-3052.57
-2578.69
-1955.29
-1220.5
-415.077
-2885.85
-2438.79
-1849.18
-1153.8
-392.208
-4188.47
-3526.21
-2670.67
-1669.44
-569.189
-4595.25
-3850.18
-2914.47
-1829.61
-627.977
-4837.19
-4020
-3046.59
-1935.34
-677.238
-6718.61
-5496.59
-4191.93
-2750.47
-1022.07
-6971.72
-5558.07
-4290.65
-2981.41
-1253.4
-7252.03
-5659.16
-4395.6
-3176.26
-1448.63
-5162.82
-4344.66
-3289.43
-2055.74
-700.74
-5478.47
-4591.48
-3473
-2176.11
-744.892
-5243.53
-4367.45
-3302.36
-2082.13
-719.856
-4579.17
-3776.52
-2860.13
-1830.36
-648.928
-3724.4
-3016.11
-2296.65
-1518.98
-572.933
-3151.99
-2502.51
-1915.32
-1310.07
-525.88
-19640.7
-14349.8
-5278.95
-4300.26
-3268.04
-4609.49
-4195.07
-12944.4
-14617.6
-11583.6
-13369.5
-8023.44
-11371.5
-6160.52
-6422.2
-4710.04
-20388.1
-11359.2
-4434.06
-7256.56
-9385.8
-6494.46
-7245.2
-5494.79
-3392.68
-4939.54
-5423.31
-5574.3
-19277.9
-12988.5
-12835.5
-9235.15
-9277.68
-9762.41
-4737.39
-6025.94
-7376.31
-14247.9
-12609.9
-10910.9
-10460.4
-9335.86
-9444.73
-6576.77
-5241.52
-4153.86
-2198.45
-4699.9
-3936.68
-2980.74
-1872.95
-643.764
-3861.43
-3254.06
-2465.18
-1540.16
-524.691
-2931.51
-2466.69
-1865.16
-1163.04
-395.634
-4146.75
-3498.82
-2650.32
-1653.36
-562.182
-3757.28
-3158.56
-2389.09
-1492.13
-508.539
-9632.78
-8173.98
-6911.28
-6430.58
-6579.89
-11041.1
-9685.47
-7985.17
-6502.44
-3931.74
-8404.08
-5956.87
-4562.97
-3249.27
-1442.5
-10056
-8426.27
-6705.56
-4997.63
-2448.47
-6816.58
-5500.47
-4089.02
-2573.97
-902.102
-8967.61
-6723.93
-4959.19
-3182.91
-1176.63
-5358.1
-4395.11
-3283.07
-2053.83
-708.106
-5564.79
-4551.43
-3395.2
-2124.86
-733.731
-4130.58
-3408.29
-2549.81
-1590.21
-544.698
-14555.6
-11868.1
-10123.9
-9242.8
-8750.73
-8899.87
-6885.01
-5314.48
-3720.88
-1668.74
-3848.93
-3158.87
-2369.41
-1494.8
-522.719
-6323.79
-5219.63
-3945.04
-2514.04
-891.479
-7962.34
-6494.95
-4957.52
-3275.44
-1253.67
-5641.49
-4654.4
-3532.39
-2271.19
-814.398
-6367.53
-5293.24
-4016.37
-2557.86
-899.582
-4859.26
-4048.83
-3060.55
-1928.47
-666.995
-3006.87
-2503.24
-1881.56
-1173.32
-400.668
-4410.28
-3696.73
-2790.92
-1742.43
-594.336
-4767.71
-3946.44
-2963.65
-1856.5
-639.394
-4927.48
-4101.05
-3093.55
-1943.7
-670.509
-13794.9
-11809.7
-10251
-9533.69
-8688.52
-9237.92
-6782.51
-5381.92
-4114.68
-2144.06
-10004.8
-8275.5
-6604.94
-5040.44
-2488.26
-7456.37
-5834.16
-4527.08
-3160.97
-1307.01
-7901.33
-6472.49
-4957.79
-3286.8
-1253.02
-7878.47
-6149.76
-4766.45
-3320.01
-1359.54
-4160.43
-3453.76
-2615.69
-1662.18
-583.293
-5371.25
-4498.98
-3400.43
-2129.13
-728.555
-6463.86
-5356.64
-4055.48
-2579.84
-906.232
-500.968
-1418.96
-2242.34
-3010.7
-3736.2
-4411.85
-2565.91
-6900.51
-6578.14
-2520.03
-8788.57
-7368.69
-8821.95
-9782.7
-2321.58
-1499.94
-5391.76
-3134.64
-10295
-7275.53
204.989
-2085.38
-5762.44
-5420.08
-2034.58
-7494.41
-6029.12
-7419.69
-8371.73
-1923.25
-890.983
-4631.08
-1653.29
-8562.99
-4363.4
1473.39
-1529.46
-4400.34
-4131.13
-1498.74
-5946.21
-3658.22
-6049.3
-6721.38
-1455.07
-810.624
-3292.36
-1715.38
-6869.21
-1780.42
1608.52
-1133.07
-3424.26
-3285.45
-1152.16
-4578.48
-2258.94
-5055.28
-5964.46
-1100.08
-850.304
-2419.98
-1730.23
-6073.12
-401.215
1208.79
-920.752
-2918.18
-2846.4
-977.326
-3702.42
-1885.37
-4555.26
-5804.35
-875.377
-923.821
-1752.39
-1660.07
-5315.59
-185.426
118.132
-816.557
-2615.86
-2623.29
-888.801
-3440.27
-2136.25
-4233.16
-5557.53
-680.113
-725.17
-1459.2
-1628.32
-5229.89
-954.229
-463.385
-1384.99
-3395.22
-4894.75
-1890.32
-5503.68
-9595.98
-7192.62
-10379.4
-1025.37
-741.065
-3912.97
-2462.11
-1261.31
-9288.71
-4869.96
-1294.06
-3179.47
-4320.89
-1650.11
-5111.72
-8715.09
-6523.27
-8884.72
-1054.69
-664.345
-4074.62
-2349.85
-440.209
-9154.91
-3711.9
-1148.06
-2830.13
-3572.78
-1338.18
-4691.67
-7866.64
-5599.36
-7888.57
-947.831
-765.763
-3528.84
-2471.33
-641.718
-7478.8
-3586.51
-1004.79
-2577.01
-2999.68
-1100.33
-4418.07
-7222.12
-5033.92
-7230.23
-881.723
-785.464
-3307.06
-2605.79
-419.995
-7004.93
-3668.22
-916.753
-2336.22
-2687.59
-971.948
-4044.9
-6688.75
-4628.61
-6914.97
-833.9
-846.778
-3037.07
-2835.2
-543.985
-6781.36
-3779.4
-856.243
-2096.21
-2505.62
-899.793
-3750.34
-6624.41
-4321.27
-6709.15
-867.719
-974.293
-2718.51
-2699.65
-788.223
-6960.52
-4191.11
5865.41
7405.17
15381.7
22460.3
22862.5
39406.7
17595.3
44796.3
14345.9
31490.1
21467.5
32576.8
19253.4
25276
7269.92
8236.57
14358.6
16430.9
18577.3
18431.4
14665.2
18149.2
21610.5
19421.2
4820.67
3637.69
5919.48
3978.5
12105.6
9608.15
20749.6
14967.3
16041
16677.3
17778.9
16881.8
6168.42
4848.61
38105.3
51024.2
24610.2
30223.9
51341.9
66611
26573.1
30418
28201.3
39854.8
24585.5
32616.3
14353.6
23176.9
2577.09
881.314
2648.31
963.67
8223.65
3310.61
11352.6
4166.46
8035.52
3087.15
8597.02
2751.72
14701.3
4671.52
18983.9
6396.42
23407.9
11588.2
21425.2
12710
22037.7
14253
19373.9
14615.8
16776.6
9959.31
16757.9
8505.36
22099.3
14173.3
22146
14315.7
20452.2
15492.8
20698.6
15575.2
18130.3
11531.4
18783.4
11824.8
17099.4
7374.02
7870.97
9542.18
17173.1
8048.67
6838.55
9627.78
18120.6
7353.66
8944.9
9639.72
19025.8
7538.51
9742.34
10087.4
3326.8
3588.2
1136.4
2151.43
10347.3
10937.7
3964.77
6969.35
13301.9
14819
6332.42
10735.8
12231.6
1200.11
13348.4
16316.3
8779.4
865.196
7508.84
11919.5
19133.8
13037.1
9645.4
11640.8
10089.1
8625.76
13491.5
3129.73
2571.74
1762.91
1775.04
9708.95
8255.92
5827.57
5537.98
12128.2
10383.9
7549.87
6793.52
5885.51
7458.03
12089.8
12492.4
13805.7
12578.9
15543.2
13595.8
10350.5
8705.44
8965.07
9542.56
11796.7
9472.59
10699.6
7940.61
9209.18
6475.33
10616.6
7012.87
10144.4
4932.72
8676.26
9498.29
12457.1
16361
13693.3
19998.3
6874.7
7728.5
8962.92
3093.03
7719.46
14946.7
7316.14
15990.9
13550.7
24662.6
13783.9
26135
5798.53
12782.6
5255.37
13589.5
7979.81
6129.43
11037.6
4453.41
8275.94
1879.11
9659.03
966.198
7645.35
9097.65
11554.2
5380.09
6307.41
10697
10208.7
7034.82
2039.58
1827.5
1685.16
1501.29
1398.82
1278.08
6837.43
5694.4
4989.5
4362.41
3568.19
3132.48
8441.34
7387.65
6871.78
5236.55
4359.56
4157.03
6634.5
5968.54
5858.08
10974.2
8520.26
7251.74
10227.6
7728.14
6356.62
10759.4
8653.09
7597.17
6532.25
4404.52
3485.72
15798.1
13891.8
12177.4
10054.9
8521.84
7199.46
8818.26
7003.67
5709.88
7313.6
5404.77
4254.26
7374.22
4182.08
2426.2
10199
13873.7
8032.91
10440.4
10909.5
16079.3
9718.11
14210.9
98.418
653.775
-403.745
68.2152
2970.62
3453.08
1233.8
751.654
691.151
2413.97
9316.71
13640.2
6621.58
3589.14
9728.25
9654.65
14907.5
16413.5
-581.885
-4022.78
7486.58
7065.42
7029.37
5427.54
907.751
508.658
556.347
222.207
2090.34
277.913
-260.093
-810.138
9203.23
2471.59
6187.91
1664.47
8887.67
2738.03
10754
3501.92
8736.19
11860
8090.9
11586.5
13903
14784.8
13281.8
14025.5
5681.21
9516.29
6543.27
9440.27
8583.24
11177.2
9467.3
11308.6
13838.2
13791.4
14494
13865.1
5734.46
9227.36
6237.92
9414.84
58.2908
1571.17
7662.91
5051.87
-513.711
1153.22
7100.86
4482.24
501.381
1808.86
7846.83
5493.15
957.216
2079.67
7909.9
5705.62
-622.998
-720.969
176.913
41.4318
-2804.69
-2856.93
-138.239
-271.125
-461.347
-1871.59
1859.16
1238.01
-10214.6
-9441.26
-5514.95
-4147.42
-279.484
-10380.5
-10791.2
-4298.34
-6314.51
-645.874
10093.4
8025.81
7289.83
6992.35
4488.56
-771.292
-733.506
-22.4715
95.2914
-2511.39
-2556.9
47.1074
334.036
-2541.97
-3210
902.593
1309.76
-5129.43
-2397.75
-8222.41
-5247.31
-3638.44
-2817.12
-4068.62
-3611.06
719.31
1774.71
3731.22
2362.91
1053.56
-1041.5
1122.8
-711.092
1973.71
596.914
2537.08
2936.98
5300.82
4885.14
10036.4
6102.86
8085.89
8203.48
12276.9
9988.39
8101.08
4874.44
4119.75
4133.12
11814.5
5280.84
12994.6
5917.79
13689.1
10195.1
14609.6
10915.9
9784.99
4011.47
10952.8
4632.27
6674.88
5465.73
5487.69
8156.11
4416.17
5041.74
4730.09
7567.05
7658.72
5442.13
6179.23
9346.15
9217.9
5915.51
7593.14
9660.45
-786.52
-844.857
-959.126
-24.5946
-310.049
-348.718
-2987.4
-3268.56
-3302.6
-136.683
-885.938
-909.377
-3786.1
-4342.74
-4504.91
769.074
-863.024
-1202.84
-1337.34
-1161.74
-862.867
-3979.2
-4126.69
-3881.27
-3258.89
-3769.42
-3741.26
-4029.04
-4453.68
-4393
1634.29
-360.878
-528.993
3418.54
1919.29
980.919
-1108.26
-2350.59
-3014.88
-1020.66
-2644.13
-3355.56
-384.98
-2174.68
-2696.52
2717.42
-534.715
-931.008
-17.4054
-36.723
-53.0676
-81.5133
-256.546
-150.851
-129.185
-129.428
11.2472
-80.3545
-199.804
-323.127
-438.795
-298.454
-341.523
-383.357
268.735
-27.8881
-282.421
-568.751
-145.935
-244.89
-332.218
-390.757
-29.0983
-149.109
-166.375
-168.124
232.797
6.19573
-133.467
-233.839
1038.52
213.804
-122.294
-361.567
1624.16
378.456
-23.125
-611.273
739.158
93.5711
-206.021
-517.478
1342.52
289.377
-4.23484
-537.737
1098.29
253.954
-145.533
-447.446
1815.96