/*--------------------------------*- C++ -*----------------------------------*\
  =========                 |
  \\      /  F ield         | OpenFOAM: The Open Source CFD Toolbox
   \\    /   O peration     | Website:  https://openfoam.org
    \\  /    A nd           | Version:  11
     \\/     M anipulation  |
\*---------------------------------------------------------------------------*/
FoamFile
{
    format      ascii;
    class       volScalarField;
    location    "2.7";
    object      gradTy;
}
// * * * * * * * * * * * * * * * * * * * * * * * * * * * * * * * * * * * * * //

dimensions      [0 -1 0 1 0 0 0];

internalField   nonuniform List<scalar> 
5712
(
11449.6
6601.58
18580.8
12168.9
20258.6
14988.9
31829.2
39396.2
41819.9
51123.2
27034.4
23475.1
17178.5
13602.6
8618.27
5827.53
19274.1
19770.7
16577.6
19506
26031.1
23308.8
29978.1
24323.3
8103.32
5858.25
4546.36
3375.32
9716.23
7924.83
5879.33
4741.11
17541.7
18264.8
17970.9
15262
14075.9
10939.9
10984.2
12459.9
17715.8
17612
37062
38298.5
26330.2
27096.9
14943.6
12604.1
16326.6
11651.3
7594.92
7782.45
6166.51
8466.58
3221.97
3838.22
8465.66
11402
5027.45
5819.79
9420.16
15549.5
6511.18
10561.6
2490.54
6297.74
2070.8
4708.31
17479.8
21570.5
17966.4
21437.2
21407.1
21653.4
21728.3
21328.8
15244.8
20625.6
15731.8
20400.1
17664.2
21264.4
17639.4
21200.5
21864.2
21026.2
21766.4
20810.2
14063.7
20697.5
13564.9
20763.3
17034.6
19843.9
21519.4
29808.1
18025.3
22805.1
21310.7
32234.3
16161.3
17519.9
21618.6
28729.7
15993.7
16419.6
21857.9
28547.2
4935.58
6401.34
12542.1
21655.7
6167.81
6969.84
16258.7
24810.3
7754.91
7818.72
20765.5
27988.8
24028.4
25971.2
20170.8
19333.4
27595
26209
24627.4
20618
17776.6
31369.7
23849.7
23436.5
20750.5
20410.1
36112.1
1935.8
2314.69
4101.56
9140.13
2762.73
3101.43
5730.67
10370.8
4161.63
3515.98
7871.9
12068.7
26094.8
26042
23433.8
23299.9
19894.7
18455.5
14991.1
13367.8
10439.6
14311.6
23687.5
23090.3
23756.7
23568.7
20517
19375.2
16839
15167.3
11167.5
14556.9
23437.2
26461.9
23338.5
27062.9
22759.9
23676.8
22179.2
23777
21181.8
21578.9
21018.8
20973.1
23140.4
27157.2
23018.9
27114.1
21508.5
24034.6
21314.5
23959.9
21263.1
21531.4
21248.3
21511.4
17734.4
16871.4
11401.4
12631.5
17597.8
16407
11214
12617.8
17994
16836.5
11658.4
12713.8
18069
16671.6
12025.1
12736
1606.67
1117.27
791.005
949.303
674.923
633.423
2223.19
1380.57
1066.63
1888.7
1549.51
1358.65
2632.92
2273.84
2315.6
3338.81
2786.76
2530.85
25255
23187.6
21679.2
23123
21767.5
20605.9
16526.5
15584.1
15074
11116.2
9842.74
9314.26
5075.69
3840.99
3297.07
22755.3
21441.2
20221.2
23207.3
21524.4
20137.1
17084.5
14981
13769.5
11078.5
9077.8
8267.59
5408.7
3832.58
3118.71
26497
26040
28779.2
25923.4
29620.1
25951.2
35660.9
27247.1
20591.1
21008
20300.2
18888.1
23109.9
21860.5
22635
19385.9
22381.8
22299.4
20685.7
22229
27717.2
24764.5
27247.2
27631.7
29523.2
30498.4
22673.5
23509.7
20350.2
19742.2
24753.8
25362.2
16213.1
8555.92
15090.9
9498.08
16445.7
8629.8
15027.7
9426.13
16253.6
8681.03
15013.2
9837.72
14575.4
10302.2
14737.1
10215.2
20925.5
17997.8
20722.7
17922.5
23055.2
20910.2
23201.3
20649.7
20321.6
15003.1
21291
14850.1
21126.4
17806.7
21365.9
17594.4
23740.3
20446
23728.9
20169.7
20068.2
15022.7
19982.8
14923
13307.9
8705.72
11852.4
7328.19
12441.5
7778.45
11416.2
6823.91
13607.6
9267.86
12026.4
7558.72
13610.2
9619.47
11987.7
7610.73
2481.48
1254.06
4401.31
2131.17
2661.56
1576.55
4702.15
2641.98
3313.69
2455.69
5247.17
3622.05
13131.6
20275.2
9423.8
9010.83
6146.55
19934.2
13951.5
8156.66
8184.8
4993.07
20637.8
16332.3
13018.5
10083.8
5936.04
631.981
480.714
1016.15
651.392
963.45
660.992
1644.06
1257.53
1770.96
1430.97
2622.17
2094.5
20385.4
20021.2
13931.7
13624.8
9084.91
9423.81
7629.19
7259.03
4217.85
3447.49
19045.6
17581.8
14886.6
13350
11656.9
10650.6
8820.67
8252.23
5236.38
5431.41
15174
12582
15219.5
12217.9
18083.9
15245.7
17982.7
14945.3
12846
10730.8
12492.5
10821.3
15192.2
11989.7
15089.2
11960.7
17881.1
15178.9
17695.1
15117.6
13058.6
10533.5
13032.5
10674.6
9985.86
8749.79
6288.36
6985.04
9641.02
8595.06
5976.96
6638.83
10410.3
8915.49
6452.32
7427.42
10670.5
8922.34
6725.43
7540.97
2069.63
1838.45
1528.37
9205.09
4887.35
3992.72
1989.17
1989.51
1775.17
9891.71
5740.52
4871.02
2707.49
3076.76
3171.61
10791
7130.36
6371.27
19238.3
18316.3
17579.2
13423
13284.8
13154.4
9988.33
10079.7
10170.1
8796.42
8660.07
8514.67
12150.7
8756.22
7952
16347.7
15393.9
14700.5
12454.3
11871.5
11512.1
10609.5
10082.2
9741.06
10488.5
9474.71
8845.48
14725.4
9864.68
8919.5
4549.7
2857.57
2153.57
2028.43
5198.97
3150.24
2289.95
2076.83
4564.43
2846.42
2156.2
2045.02
5316.18
3217.41
2331.73
2093.36
4528.95
2795.3
2139.35
2016.96
5418.48
3250.96
2363.95
2067.04
5869.24
3470.56
2445.35
2184.14
6057.71
3619.52
2540.48
2282.57
4851.05
2991.75
2221.59
2032.84
3766.49
2515.65
1990.95
1954.29
4162.3
2653.36
2041.61
1869.18
3400.97
2340.92
1898.52
1866.85
5308.5
3245.44
2352.24
2142.7
3981.61
2642.97
2051.15
2024.8
5563.89
3415.35
2441.82
2215.43
4070.33
2732.29
2097.91
2058.86
3267.87
2368.97
1922.4
1913.29
1817.23
1772.07
1637.72
1793.07
3263.1
2346.89
1914.18
1906.3
1917.91
1798.75
1647.72
1803.23
3333.09
2331.31
1911.08
1906.88
2250.95
1895.7
1685.03
1850.37
3243.82
2239.42
1854.17
1937.65
2530.26
1957.83
1727.23
1829.59
2907.22
2135.45
1790.86
1834.5
272.766
1278.04
1247.43
371.964
-1549.81
994.654
1078.01
404.805
531.796
1362.04
1278.65
394.528
-1209.23
1089.93
1106.22
414.278
1014.14
1509.83
1330.65
393.984
-639.574
1249.24
1150.23
420.408
1594.69
1681.52
1396.83
430.3
-51.3714
1421.61
1209.28
440.104
1955.62
1832.54
1477.33
509.623
53.8295
1544.6
1263.29
457.168
2092.1
1988.8
1518.82
480.792
-390.881
1656.33
1359.16
486.331
2038.85
1919.55
1488.08
481.466
-411.383
1603.89
1311.83
469.201
2096.51
2037.74
1550.42
445.175
-480.044
1702.7
1394.55
490.171
2148.97
2091.59
1599.08
457.25
-373.133
1758.64
1436.9
503.928
2019.23
1609.94
1148.52
685
227.387
1995.56
1606.63
1149.34
685.869
227.689
2043.63
1622.16
1154.68
687.935
228.254
2024.39
1622.3
1157.62
689.901
228.895
2088.56
1639.68
1162.7
691.657
229.346
2059.41
1641.18
1167.42
694.684
230.335
2093.14
1663.09
1180.45
701.405
232.402
2143.06
1694.92
1199.18
711.056
235.37
2135.69
1660.93
1174.33
697.479
231.121
2281.89
1687.28
1181.94
700.379
231.927
2145.12
1655.44
1168.68
694.228
230.081
2278.22
1677.76
1175.69
697.087
230.897
2156.56
1680.3
1186.04
703.559
233.001
2323.53
1706.05
1192.6
705.866
233.626
2204.53
1711.12
1203.65
712.56
235.77
2374.44
1733.5
1207.85
713.648
236.03
2076.37
1617.92
1148.46
684.3
227.121
2185.3
1626.79
1148.7
683.896
226.961
2099.06
1627.55
1153.04
686.428
227.739
2203.21
1634.02
1152.18
685.53
227.44
2144.9
1643.71
1160.27
689.771
228.712
2242.64
1647.18
1158.41
688.468
228.298
2221.4
1662.45
1167.61
693.051
229.658
2289.83
1661.39
1165.56
691.878
229.282
2294.58
1672.15
1171.78
695.01
230.237
8989.63
13754.2
9471.77
14079.1
10194.7
14520.5
10728.5
14844
10383
14373.1
9750.68
10961.7
9715.7
11405.5
9833.02
10912.9
10018.3
11068.3
7925.87
1353.83
288.332
64.4521
11.3819
8803.47
2501
605.593
136.969
24.181
8034.23
1346.94
284.655
63.3688
11.1584
8912.51
2497.52
602.171
135.508
23.7134
8159.23
1348.2
282.321
62.5462
10.9871
9027.2
2500.13
599.167
134.272
23.4555
8148.42
1316.9
273.135
60.3291
10.5874
8985.47
2463.67
587.958
131.481
22.9377
7793.89
1227.85
254.038
56.2617
9.89343
8572.71
2353.92
563.404
126.312
22.0644
7037.97
1153.05
246.309
55.4267
9.81922
7198.78
2071.59
508.701
115.884
20.4295
7248.57
1168.31
246.601
55.1439
9.73776
7576.32
2175.89
529.641
119.71
20.9945
6965.29
1152.35
247.358
55.803
9.89594
7085.84
2028.15
498.58
113.946
20.1444
6952.29
1145.72
245.793
55.4813
9.83137
7109.98
2021.15
495.694
113.571
20.0473
32792.2
46374.6
45340.1
31847.9
18824
19790.6
27759.4
28952.2
21670.5
24248.2
34412.1
46842.2
43459.2
57475.8
28406.4
32333.6
22329.2
23823.2
12132.1
13289.9
4949.18
3315.1
967.481
765.015
854.684
757.731
905.028
4894.86
4897.63
2989.78
4221.02
4090.37
1809.57
2460.06
2261.89
1517.84
1738.99
1442.35
4399.14
2459.13
1628.22
1449.36
1807.34
1578.67
1259.1
1202.43
1143.77
1013.87
1344.09
1219.9
4574.64
2829.24
3230.31
2106.22
1762.26
2428.05
1286.08
1035.36
1405.1
10136
10383.2
10771.4
12324.9
20746.6
7400.27
8617.79
9583.31
10933.9
12881.9
2551.75
3663.18
4523
5118.06
5428.74
2031.53
2944.07
3660.15
4154.25
4407.8
2266.45
3276.2
4061.13
4596.96
4869.42
2013.65
2920.54
3631.63
4120.18
4369.41
2395.02
3452.64
4272.56
4834.31
5122.17
10362.1
10816.8
10854.8
11730.3
18740.4
10336.1
10603.3
10449.9
10866.1
12537.1
6918.12
8304.44
9092.75
9846.62
10712.7
9192.75
9776.22
9663
9708.25
10025.3
8897.49
9535.25
9378.06
9244.02
9303.33
4533.98
6048.15
7045.27
7703.98
8075.92
5883.44
7359.19
8193.63
8766.21
9169.64
5475.73
6946.97
7762.38
8237.52
8493.6
3884.36
5332.31
6335.53
6986.82
7324.27
4373.72
5856.13
6817.42
7416.41
7723.42
3712.28
5134.07
6128.21
6766.83
7088.39
9498.93
10264.6
10612.3
11761.1
19018.1
5888.78
7435.15
8463.44
9382.95
10286.7
4140.65
5643.66
6693.9
7414.65
7827.58
3727.12
5163.78
6208.42
6936.09
7346.89
4531.69
6075.39
7160.79
7972.57
8522.29
4028.81
5533.01
6634.47
7442.29
7937.13
3273.2
4609.75
5622.71
6342.98
6745.15
3140.88
4446.43
5429.86
6107.83
6468.08
2998.77
4261.5
5204.55
5833.57
6152.12
2672.63
3829.51
4711.85
5308.84
5612.81
3482.24
4866.89
5870.83
6541.06
6891.04
3183.02
4496.32
5474.8
6139.19
6487.17
9611.41
10143.2
10577.6
12009.7
19941.5
6525.61
7921.64
8976.6
10206.1
11722.6
7558.52
8984.46
9823.11
11087.6
13653.9
5169.53
6776.01
7958.19
8997.19
9861.61
4440.23
6006.02
7156.59
8058.43
8675.54
5825.28
7398.15
8499.14
9538.96
10576.9
3340.76
4696.99
5715.74
6432.11
6827.96
2724.7
3896.83
4792.49
5404.94
5721.77
3623.81
5043.93
6092.26
6832.22
7252.11
17960.2
11912.7
18514.3
13204.8
24028.5
34218
25092
34034.1
19053
20190.3
16330.5
19481.9
21691.6
20669.9
27536
22637.4
13811.6
12855.7
6766.12
5751.9
15064.4
13718.8
7777.73
6327.51
18610.2
20137.1
19112.7
17471.3
19439.8
12808.9
10767.5
12415.3
17593.8
17569.7
36480.2
38164.5
25573.3
26887.1
15493.8
12718.9
16954.7
11758.1
8210.17
7929.6
13461.8
14857.7
5636.41
6132.66
14833.2
16870.8
7038.7
7752.82
14182
19735
8240.53
12662
2887.78
7017.59
2149.67
4848.64
17791.3
20370.4
17726
20732.6
19476
19785.2
20491
20277.3
16128.2
20423.4
18289
20134.7
17434
20885.7
17552.2
21077.6
21223.2
20486.3
21576.6
20642.5
14307.2
20562.3
13597.3
20712.1
17882.9
21076.4
21731.9
30163.5
19467.5
24912.9
21785.8
33002.9
16541
18105.2
21690.8
28879.4
16089.6
16580.6
21868.2
28585.4
18448.9
19943.7
23060.1
34132.3
18589.4
19044.3
24697.5
34603.1
18361.7
18060.8
26611.1
34385.9
18005.7
18949.9
19151.9
20280.5
30307.4
18231.9
16970.6
20465.3
18569.9
34597.2
19019.4
19762.3
19518.3
21042.2
37474
11185.1
10268.2
10296.8
13252.6
12238.9
11251.8
10676.3
13633.9
13461.1
11718.9
11180.3
13958.7
17726.9
17129.5
16571.3
16190.8
19027.4
17873.2
15665.8
14152.4
11722.9
14583.2
18727.8
18603.2
19759.8
19963.7
18875.1
17820.8
17047.6
15172.3
11557.6
14123.1
21494.6
24239.8
22345
25862.3
20401.9
21364.7
21034
22628.7
20627.6
20872
20080.4
19839
22650.8
26570.5
22869.5
26938.5
20969.2
23474.8
21154
23795.8
20960.5
21165.8
21152.1
21401.1
17578
16584.5
11424.1
12546
17475.9
16083
11378
12559.9
17879.3
16664.5
11644.1
12649.9
18027.4
16615.6
12015
12711.3
9425.84
9567.71
4038.03
3726.37
10515.2
10184.3
4525.36
4337
10255.9
9632.49
5158.72
4987.56
16960.7
16511
16463.2
16576.5
16341.1
15889.6
12238.7
10992.4
6077.75
5035.3
19008.8
18307.3
20193.9
19472
15957
14853.2
11418.9
9857.19
5596.4
4235.37
21712.2
20704.8
26530
23250.2
24107.9
21552.2
32899.6
24901.1
19858.4
16404.2
21581.5
17172.2
19753.6
16695.3
21677.4
17398.9
20233.4
17997.5
18377
17158.1
20915.8
22098.5
25893.9
27218
28370.1
30161
21318.5
23028.4
19315.1
19445.9
23229.3
24848.3
13364.9
9768.22
13767.7
9992.79
13650.8
9677.13
13947.4
9836.89
13612.6
9533.66
13926.5
10030.9
13951.1
10337.6
14535.3
10220
17071.6
16659.3
18795.7
17094
19516.9
18761.5
21310.2
19448.6
18517.5
14692.4
17661
14549.6
20166.5
17365
21079.8
17460.1
22812.8
19837.9
23458.8
19985.3
19174.8
14827.6
19722.8
14862.1
12899.6
9118.42
12055.4
7700.46
12387.6
8843.77
12017.7
7619.51
13288.9
9419.37
12089
7731.25
13497.3
9655.14
12003.3
7666.98
12937.3
13259.3
9154.48
8402.63
13096.7
13381.8
9006.7
8330.53
13084.1
12856.1
8773.26
8232.83
15193.3
17852.5
16028.9
11917.2
8526.88
16589.5
15601.4
17507.6
12022.7
8229.31
18286.5
16303.6
14535
12181.1
7548.01
14069.5
15551.8
8425.55
9268.66
13904.3
15093
8339.2
9121.8
12948.8
13685.4
7944.69
8189.42
16482.8
15741.3
15004.1
14599.3
15677.3
16344.5
12268.7
13315.9
7686.46
7600.04
16694.3
15443.4
15164.6
14048.3
13737.1
13380.4
11617.4
11888.8
7048.49
7787.69
14835.5
12918.8
14894.1
12323.6
16646.1
14286.5
17158.4
14447.9
13002.6
11291.5
13096.8
12093.8
14988.5
12034.5
15025.8
11972.7
17467.2
14934.6
17571.3
15047.9
13072.2
10777.5
13022.6
10736.2
10484.4
9551.57
6772.7
7722.88
10781.3
10269.2
6939.47
8126.22
10608.3
9274.05
6676.23
7824.2
10726.9
9027.68
6801.99
7666.3
18939.6
18935
26621.3
22240
18098.2
18249.1
25496.3
21232.6
15840.4
16611.7
23360.3
19719.4
15375.8
14938.6
14329.3
14234.4
16769.4
17359.6
15779.6
15867.5
21418.5
18076.5
14588.8
13988.2
13605.3
13544.9
14094.1
14566
15360.7
15098.4
21039.4
16676.1
6040.27
3862.01
2773.31
2479.3
6306
4013.06
2864.58
2499.72
5913.71
3779.39
2721.26
2455.6
6240.67
3964.26
2826.81
2459.39
5680.41
3614.89
2629.39
2371.68
6135.31
3851.64
2776.3
2373.15
6288.04
3848.16
2727.88
2404.94
6197.85
3750.71
2635.57
2359.36
5452.31
3463.05
2558.91
2304.73
4163.98
2847.96
2224.84
2157.69
5106.9
3323.06
2475.81
2196.93
4051.77
2854.55
2207.09
2105.78
5640.82
3526.65
2565.05
2318.01
4195.75
2829.75
2199.05
2164.71
5666.68
3509.54
2515.25
2276.98
4137.68
2793.03
2148.64
2106.98
5481.56
3574.36
2598.55
2393.11
4535.16
3148.37
2368.75
2302.81
5312.77
3487.93
2546.49
2353.03
4418.51
3100.22
2342.56
2290.92
5074.69
3347.8
2475.74
2310.2
4333.41
3038.72
2308.93
2289.48
4576.17
3090.98
2335.34
2288.73
4145.27
2934.35
2250.91
2181.02
3874.22
2831.79
2172.19
2099
3117.18
2713.93
1922.83
528.322
897.122
2431.4
1763.9
600.831
3163.97
2713.98
1920.83
547.05
1090.71
2437.81
1760.6
602.809
3245.47
2695.76
1898.16
518.673
1359.24
2428.74
1736.79
587.977
3215.79
2642.45
1896.55
547.26
1407.5
2383.05
1714.69
586.676
2933.76
2529.51
1880.68
626.358
843.408
2265.62
1675.05
582.065
2381.96
2280.47
1768.85
574.563
-270.975
1964.82
1578.6
563.064
2579.2
2386.65
1823.24
590.286
-77.9389
2093.85
1621.56
568.784
2238.59
2196.72
1703.36
505.871
-446.295
1869.77
1523.77
537.661
2189.23
2142.13
1649.74
477.928
-370.16
1810.78
1478.8
519.642
2381.35
1832.81
1275.54
749.25
246.937
2326.13
1818.2
1271.37
747.828
246.562
2380.16
1825.6
1270.45
746.489
246.071
2316.37
1807.15
1264.11
743.972
245.366
2396.06
1819.35
1264.46
743.072
244.99
2305.85
1794.5
1255.55
739.414
243.961
2262.94
1769.58
1241.89
732.645
241.925
2205.51
1735.09
1222.47
722.926
238.994
2362.33
1799.67
1253.14
737.353
243.259
2498.46
1810.92
1251.22
735.319
242.557
2433.49
1820.13
1261.22
740.901
244.276
2557.7
1826.21
1258.28
738.653
243.534
2306.37
1775.58
1240.54
731.194
241.42
2463.82
1789.93
1239.92
729.793
240.913
2256.46
1744.15
1222.64
722.217
238.721
2422.66
1762.73
1224.41
722.053
238.602
2487.47
1854.02
1280.47
750.722
247.305
2662.51
1873.1
1283.91
751.656
247.533
2492.43
1849.52
1276.9
748.732
246.672
2664.03
1869.1
1281.09
750.12
247.049
2511.84
1843.34
1271.25
745.574
245.67
2671.58
1861.32
1275.71
747.255
246.148
2566.43
1840.85
1266.18
742.572
244.705
2682.9
1850.02
1269.07
743.806
245.055
2624.7
1836.63
1262.71
740.703
244.123
11142.7
14650.2
11207.7
14666.2
11348.4
14682.2
11180.8
14522.3
10473.6
13831.9
9752.24
10908.4
9765.96
11318
9822.58
10877
10012.8
11055.4
8546.44
1419.88
297.83
66.0453
11.6132
9202.11
2597.76
624.377
140.37
24.6833
8515.87
1397.47
292.012
64.6294
11.3445
9167.81
2567.17
616.443
138.174
24.1123
8417.41
1374.2
286.286
63.2761
11.1005
9073.19
2529.85
606.696
135.84
23.7044
8194.06
1320.08
273.847
60.5261
10.6249
8857.31
2458.04
589.17
131.968
23.0333
7745.04
1220.35
252.949
56.1125
9.87632
8395.2
2332.58
561.032
126.083
22.0491
7014.21
1148.38
245.27
55.2059
9.78304
7162.3
2060.72
506.187
115.369
20.3478
7218.08
1161.75
245.254
54.8869
9.69876
7510.94
2159.28
526.47
119.161
20.9176
6949.54
1149.49
246.715
55.6604
9.87174
7064.34
2021.86
497.035
113.609
20.0881
6946.71
1144.74
245.572
55.4318
9.82282
7102.55
2019.09
495.181
113.455
20.0276
32337.5
46063.6
44267.2
30485.1
23860
28362.2
23079.9
28257.5
26679.1
42198.3
28262.1
43193.7
277.447
295.079
334.39
397.888
489.882
615.312
292.359
310.416
350.507
414.665
505.761
627.125
266.169
260.601
284.936
281.281
326.9
327.687
395.206
404.573
493.024
513.53
619.992
643.793
779.834
989.398
1260.89
1620.46
2034.77
2332.67
781.94
972.24
1199.25
1453.76
1697.11
1854.89
742.93
1090.18
1370.29
1566.63
1667.75
789.918
1158.64
1455.74
1663.81
1770.9
894.703
1311.3
1646.3
1880.53
2000.98
1063.7
1556.95
1952.34
2228.16
2369.83
1307.81
1910.25
2390.89
2725.21
2896.74
1638.86
2385.64
2977.39
3387.77
3598.43
782.704
1148.23
1442.89
1649.33
1755.61
830.768
1218.11
1529.96
1748.22
1860.51
937.48
1373.25
1723.27
1967.83
2093.54
1107.95
1620.44
2030.64
2316.6
2463.48
1349.19
1968.62
2461.98
2805.09
2981.29
1668.83
2426.34
3025.77
3441.9
3656.03
712.784
1046.1
1315.1
1503.72
1600.88
697.886
1024.3
1287.78
1472.57
1567.76
762.852
1119.16
1406.41
1607.66
1711.26
753.084
1104.89
1388.58
1587.36
1689.69
874.795
1282.44
1610.44
1839.86
1957.85
876.912
1285.59
1614.47
1844.51
1962.81
1056.75
1547.25
1940.68
2215.2
2356.18
1081.75
1583.79
1986.4
2267.23
2411.39
1316.56
1923.73
2408.37
2745.36
2918.12
1371.13
2003.01
2506.94
2856.96
3036.24
1652.09
2406.29
3004
3417.85
3629.77
1715.38
2497.92
3117.19
3545
3763.56
2068.72
2994.24
3720.6
4223.88
4483.79
2606.38
3736.83
4613.2
5224.73
5547.52
3280.89
4628.87
5658.49
6396.23
6809.27
4126.78
5667.35
6827.23
7716.91
8285.9
5025.04
6645.07
7855.62
8896.94
9709.72
5642.52
7273.52
8494.55
9640.82
10650.1
2072.88
2997.74
3723.54
4227.72
4489.06
2562.43
3676.64
4542.42
5147.71
5467.2
3133.68
4445.73
5454.12
6171.29
6564.2
3754.25
5246.43
6381.34
7215.23
7701.98
4325.17
5945.17
7168.2
8106.79
8699.69
4687.12
6375.49
7647.43
8655.11
9325.57
280.46
304.224
350.139
420.972
521.238
655.941
295.437
319.744
366.446
437.701
536.3
665.095
269.224
263.773
294.271
291.016
343.107
344.716
419.283
430.201
526.101
548.452
664.417
691.866
829.056
1043
1311.65
1658.34
2054.77
2338.28
825.915
1018.73
1242.9
1488.44
1718.58
1862.03
751.02
1102.14
1385.44
1584.08
1686.39
814.547
1195.12
1502.05
1717.17
1827.97
937.166
1374.32
1726.46
1973.08
2100.04
1126.08
1649.87
2070.98
2365.55
2517.13
1392.87
2037.73
2554.65
2915.77
3101.61
1749.74
2553.39
3194.88
3642.7
3873.6
790.986
1160.49
1458.47
1667.3
1774.83
855.918
1255.43
1577.42
1803
1919.15
980.508
1437.24
1804.83
2062.15
2194.59
1170.27
1713.48
2149.67
2454.66
2611.64
1432.11
2093.09
2622.12
2991.69
3182.04
1772.46
2583.18
3229.2
3680.45
3913.59
720.991
1058.22
1330.44
1521.37
1619.73
706.405
1036.87
1303.69
1490.86
1587.29
787.972
1156.32
1453.52
1661.89
1769.22
779.271
1143.61
1437.64
1643.81
1750.01
918.463
1347.18
1692.7
1934.75
2059.36
922.787
1353.59
1700.84
1944.12
2069.35
1121.78
1644.05
2064.19
2358.12
2509.36
1151
1686.92
2118.04
2419.64
2574.79
1406.31
2058.31
2581.32
2946.67
3134.59
1466.06
2145.78
2690.95
3071.64
3267.37
1773.46
2590.23
3242.85
3698.14
3932.5
1847.05
2698.28
3378.41
3852.51
4096.26
2204.36
3202.52
3994.46
4548.41
4836.2
2756.45
3972.65
4929.77
5605.82
5965.04
3427.27
4867.98
5989.91
6804.84
7263.25
4242.8
5869.79
7121.26
8092.27
8712.73
5093.63
6776.14
8055.33
9161.48
10020.1
5664.24
7318.19
8564.78
9736.16
10764.4
2193.82
3182.94
3966.46
4515.1
4800.87
2691.73
3877.96
4810.55
5468.68
5817.8
3257.19
4642.6
5721.73
6496.7
6922.9
3854.87
5411.9
6611.94
7501.05
8020.88
4389.48
6054.57
7324.3
8303.86
8922.5
4708.98
6413.54
7702.53
8725.48
9405.81
4930
3313.82
1031.19
820.201
928.944
818.931
975.178
4550.92
4408.06
2917.65
3669.84
1865.48
2422.39
1593.8
1753.64
1502.25
4245.01
2475.21
1703.87
1529.14
1871.54
1646.39
1322.28
1279.88
1239.7
1103.9
1431.96
1305.42
4518.42
2834.7
3196.69
2137.93
1815.3
2449.71
1357.44
1112.44
1480.65
10133.3
10438
10878.3
12500.7
21071.6
7414.65
8667.82
9673.03
11067.4
13057.2
2730.95
3946.64
4905.65
5580.33
5935.96
2183.83
3178.54
3969.2
4521.06
4806.4
2473.12
3598.4
4490.85
5111.65
5431.5
2182.69
3181.1
3975.48
4528.71
4813.57
2591.49
3761.6
4687.45
5333.43
5668.38
10125.7
11449.8
12322.2
13998.8
22342.9
10024
11574.9
12656.2
14165.3
16695.7
7010.04
8965.17
10424
11791.8
13073.7
8851.89
10836.7
12018.7
13238.9
14294.6
4796.5
6665.76
8074.51
9098.25
9689.38
6037.17
8061.88
9543.76
10696.6
11452.9
4160.87
5895.49
7222.88
8158.16
8663.95
4550.21
6394.35
7789.95
8777.58
9319.43
3940.79
5618.17
6908.54
7809.51
8287.15
9400.39
10648.7
11531.6
13207.9
21432.9
6062.89
7950.45
9386.11
10687.3
11857.8
4410.51
6185.22
7542.16
8533.18
9108.65
3981.52
5628.12
6900.88
7826.72
8355.98
4771.17
6571.23
7949.58
9025.25
9741.81
4246.92
5934.94
7238.24
8224.53
8829.07
3458.73
4919.79
6059.82
6887.63
7353.32
3368.63
4827.88
5968.21
6777.73
7214.27
3279.94
4730.87
5865.94
6655.92
7067.59
2928.32
4239.47
5271.72
5990.68
6363.96
3759.52
5368.03
6613.41
7490.97
7962.37
3438.38
4931.66
6096.53
6917.95
7356.98
9604.41
10314.8
10917.5
12557
20949.2
6581.24
8074.73
9240.32
10585.4
12203.4
7605.23
9291.08
10433.2
12014.1
14913.5
5291.1
7029.43
8363.14
9547.21
10514.5
4617.34
6342.68
7671.84
8736.23
9458.06
5972.6
7795.98
9199.9
10532.1
11782.7
3553.34
5058.3
6231.14
7078.46
7551.53
2945.26
4253.82
5283.29
6004.99
6383.95
3857.55
5457.99
6699.13
7605.81
8125.29
10245.3
9634.5
8573.56
7106.66
5139.47
2005.93
18303.4
18652.9
21205.9
21857.3
17985.1
19106.6
20311.5
19720.1
14989.6
18352
15648.4
18915.9
17966.8
16218
24985.5
17630.2
17844.9
20054.2
20472.9
17059.4
18162.9
19456.4
19055.9
14941.5
22159.7
15518.2
22079.1
18151.3
19679
26813.6
16889.1
16979.7
18600.4
18783.8
16391.1
17879.1
18321.9
18400.7
17155.1
19665.5
17911.6
19696.7
19728.2
21659.4
24203.9
16204.8
16313.9
17314.8
17345.9
16028.5
17750.5
17201.1
17545.8
16131.3
17254.2
16863.6
16844.9
18104.8
19562.5
21010.3
15481.2
15623
16459.5
16409.6
15791
17669.5
16488
17014.7
15324.1
14313.2
16084.1
13774.7
16717.4
16593.6
17452.1
15176.9
15359.6
15901.6
15821
15461.4
17029.7
16039.5
16487.2
14674.3
12367.5
15249.4
12145.6
15612.3
14674.4
15872.8
21191.4
20400.2
22188.7
23278.9
19711.5
19737.7
20717.8
19831.1
18778.6
13945.4
18759.7
14037.2
16681.7
15183.2
18236.6
20055.3
19489.2
20559.8
21269.5
19089.9
19274.9
19593.4
18853
17496.5
13564
17502.6
13671.9
15373.1
13727
16964.5
18583.9
18258
18624.9
18959.9
18043.6
18240.5
18156.3
17723.6
16724.2
13422.2
16544.1
13170.8
14865
12622.7
16805.3
17239.7
17062.5
17186.4
17326.9
16931.9
17071.3
17041.5
16706.9
15952.1
14039.1
15864.1
13724.1
14426.1
12820.4
17343
16601.3
16490.1
16427
16484.4
16218.6
16351.1
16414
16215.3
15894.9
15310.7
15841
15172.3
14661.9
13462.3
18130.9
16146.6
16042.2
16008.2
16038.9
15813.9
16122.9
15968.6
15900.9
15901.7
16113.8
15907.7
16034.2
14853.1
14083.1
18966.2
11262.6
6390.31
18573.8
12175.9
20279.5
14976.7
31856.7
39409.8
41869.4
51147.8
27082.8
23475.7
17185.9
13628
8359.19
5561.42
19277.2
19773
16576.4
19507
26044
23314.4
29986.4
24327.6
7937.04
5742.42
4393.3
3273.9
9689.44
7915.36
5877.92
4754.32
17537.1
18260.3
17969.5
15262.4
14071.8
10942.8
10985.1
12461.3
17717.4
17613.7
37068.8
38303.2
26333.4
27099.2
14944.4
12605.6
16328.1
11652.6
7596.04
7783.52
6056.6
8332.02
3135.9
3743.51
8467.31
11413.7
5041.3
5835.9
9421.28
15555.4
6517.15
10569.2
2491.87
6300.66
2071.27
4709.43
17480.9
21571.5
17967.8
21438.2
21409.9
21654.8
21730.7
21330
15246.7
20626.8
15732
20401.1
17665.4
21265.3
17640.5
21201.3
21865.9
21027.1
21767.5
20810.8
14065
20698.7
13566
20764.5
17036.5
19847.5
21521.1
29810.6
18026.7
22808.9
21312.3
32237.1
16163
17522.5
21620.2
28731.9
15995.4
16421.8
21859.5
28549.4
4855.16
6322.21
12372.3
21470.5
6173.18
6973.58
16273.6
24828.2
7757.32
7820.74
20772.2
27995.7
24028.5
25971.9
20170.4
19334.5
27598.9
26209.5
24627.3
20617.1
17777.3
31373.8
23850.6
23437.1
20751
20411.6
36115.5
1895.76
2283.64
4017.19
9051.11
2767.02
3105.53
5741.73
10380.1
4163.58
3517.13
7875.54
12070.9
26094.9
26042
23433.6
23299.9
19894
18455.2
14991.9
13368.5
10441.5
14312.9
23687.9
23090.4
23757
23568.9
20517.4
19375.6
16840.1
15168.2
11168.7
14557.8
23437.8
26462.1
23339.1
27063.1
22760.4
23676.9
22179.6
23777
21182.6
21579.5
21019.5
20973.6
23140.9
27157.4
23019.4
27114.3
21508.8
24034.7
21314.7
23959.9
21263.8
21531.9
21249
21511.9
17735.3
16872.1
11402.2
12632.1
17598.8
16407.7
11214.9
12618.5
17994.9
16837.2
11659
12714.4
18069.8
16672.2
12025.8
12736.6
1584.48
1099.85
776.537
944.646
669.412
626.871
2229.54
1384
1068.23
1894.77
1553.43
1361.01
2633.5
2274.6
2316.44
3339.86
2788.17
2532.26
25255.1
23187.8
21679.6
23123.3
21768
20606.6
16526.9
15584.9
15074.8
11116.8
9843.57
9315.19
5076.36
3841.76
3297.81
22755.4
21441.4
20221.5
23207.5
21524.9
20137.7
17084.9
14981.6
13770.2
11079.1
9078.43
8268.27
5409.18
3833.04
3119.12
26501.4
26041.3
28782.2
25924.7
29634
25956.7
35673.1
27251.9
20417.9
20955.8
20096.6
18825.1
23080
21832.9
22601.6
19358.9
22376.7
22295.2
20685.7
22227.4
27700.8
24749.9
27248.1
27632
29526.8
30500.4
22671.7
23508.9
20349.4
19741.3
24746.7
25358.8
16217.7
8561.29
15089.3
9505.37
16427.3
8625.01
15012.1
9422.51
16241.7
8676.53
15002.9
9833.12
14569.6
10298.7
14734.1
10213.1
20923.9
17997.5
20721.7
17922.2
23057.2
20911.1
23203.2
20650.3
20316.4
15001.8
21284.3
14848.6
21125.9
17806.4
21365.5
17594
23741.6
20446.3
23729.5
20169.8
20065.1
15021.8
19981
14922.2
13304.8
8703.35
11850.7
7326.97
12438.2
7776.11
11414.3
6822.57
13605.3
9265.88
12025.1
7557.69
13608.6
9617.98
11986.7
7609.88
2468.92
1238.1
4387.14
2112.74
2662.05
1577.63
4702.08
2642.84
3312.85
2455.57
5245.69
3621.47
13132.3
20276.4
9423.46
9009.37
6145.13
19935.1
13951.9
8156.59
8183.75
4992.15
20638.6
16332.3
13017.5
10082.3
5934.88
614.094
459.085
996.787
642.857
964.852
660.776
1644.28
1256.8
1771.26
1431.65
2622.12
2095
20385.8
20021.2
13931.5
13624.5
9084.59
9423.32
7628.57
7258.78
4217.36
3447.44
19045.9
17581.8
14886.5
13349.7
11656.2
10650.2
8819.83
8251.79
5235.64
5430.96
15173.7
12581.7
15219.2
12217.6
18084.3
15245.7
17982.9
14945.3
12845.3
10730.3
12491.7
10820.7
15191.9
11989.4
15088.9
11960.3
17881.2
15178.8
17695.1
15117.5
13058
10533
13031.9
10674.1
9984.99
8749.2
6287.61
6984.39
9640.06
8594.46
5976.14
6638.18
10409.5
8914.93
6451.67
7426.79
10669.9
8921.83
6724.85
7540.41
2033.11
1807.83
1503.81
9154.7
4842.51
3949.63
1986.13
1988.12
1775.19
9887.49
5740.31
4871.27
2708.22
3077.3
3172.05
10791.1
7130.94
6371.96
19238.2
18316.2
17579.1
13422.6
13284.4
13154.1
9987.73
10079.2
10169.6
8796.25
8659.87
8514.47
12150.3
8756.32
7952.24
16347.6
15393.9
14700.4
12454
11871.3
11511.9
10609.2
10082
9740.86
10488.1
9474.51
8845.36
14724.5
9864.46
8919.48
4550.18
2857.6
2153.69
2027.85
5197.7
3148.62
2289.22
2075.8
4563.27
2845.93
2155.86
2044.8
5315.55
3217.16
2331.53
2093.17
4527.7
2794.82
2139.04
2016.75
5417.23
3250.52
2363.68
2066.84
5867.99
3470.1
2445.1
2183.96
6056.75
3619.12
2540.26
2282.4
4850.04
2991.29
2221.32
2032.65
3765.83
2515.27
1990.71
1954.11
4161.33
2652.91
2041.34
1868.99
3400.28
2340.53
1898.28
1866.67
5307.55
3245
2351.99
2142.52
3981
2642.62
2050.93
2024.62
5563.11
3414.98
2441.6
2215.27
4069.82
2731.98
2097.72
2058.7
3267.18
2369.45
1923.07
1912.9
1815.16
1771.67
1638.24
1791.98
3262.29
2346.45
1913.84
1906.1
1917.24
1798.46
1647.47
1803.14
3332.23
2330.88
1910.79
1906.69
2250.33
1895.36
1684.79
1850.23
3243.05
2239.01
1853.9
1937.45
2529.63
1957.48
1726.99
1829.42
2906.57
2135.07
1790.62
1834.3
272.869
1277.7
1248.21
372.013
-1547.89
993.278
1077.7
404.643
531.167
1361.93
1278.47
394.519
-1209.98
1090.02
1106.24
414.311
1013.7
1509.6
1330.48
393.937
-639.869
1249.08
1150.14
420.385
1594.25
1681.23
1396.64
430.246
-51.6014
1421.37
1209.13
440.057
1955.16
1832.21
1477.12
509.559
53.6186
1544.32
1263.12
457.112
2091.7
1988.49
1518.62
480.737
-391.018
1656.05
1358.97
486.273
2038.41
1919.22
1487.88
481.41
-411.54
1603.6
1311.64
469.142
2096.16
2037.45
1550.24
445.128
-480.153
1702.44
1394.38
490.118
2148.66
2091.34
1598.93
457.21
-373.228
1758.42
1436.75
503.881
2017.67
1609.19
1148.19
684.854
227.343
1993.83
1605.71
1148.9
685.664
227.628
2043.57
1622.08
1154.63
687.912
228.247
2024.28
1622.21
1157.57
689.883
228.893
2088.45
1639.59
1162.66
691.634
229.341
2059.29
1641.1
1167.37
694.663
230.331
2093
1663.01
1180.4
701.381
232.396
2142.94
1694.84
1199.13
711.029
235.363
2135.55
1660.84
1174.28
697.454
231.115
2281.72
1687.18
1181.88
700.351
231.92
2144.98
1655.35
1168.63
694.204
230.074
2278.05
1677.66
1175.64
697.061
230.89
2156.41
1680.21
1185.98
703.532
232.994
2323.36
1705.95
1192.54
705.838
233.618
2204.39
1711.03
1203.59
712.533
235.763
2374.28
1733.41
1207.79
713.62
236.022
2074.77
1617.29
1148.2
684.185
227.086
2183.76
1626.26
1148.48
683.807
226.939
2099.04
1627.47
1152.99
686.408
227.735
2203.21
1633.93
1152.13
685.515
227.441
2144.8
1643.63
1160.22
689.749
228.707
2242.55
1647.09
1158.36
688.449
228.295
2221.26
1662.36
1167.56
693.027
229.652
2289.69
1661.3
1165.51
691.855
229.277
2294.42
1672.06
1171.73
694.984
230.23
8941.1
13699.8
9474.03
14080.7
10196.2
14521.3
10729.5
14844.6
10383.7
14373.6
9751.26
10962.3
9716.32
11406.1
9833.58
10913.4
10018.9
11068.8
7914.86
1344.71
285.993
63.916
11.2872
8788.03
2495.26
603.964
136.581
24.1104
8031.82
1347.5
284.763
63.3858
11.1606
8910.91
2496.93
601.963
135.449
23.7019
8158.68
1348.26
282.329
62.5444
10.9863
9026.78
2499.93
599.089
134.247
23.4503
8148.46
1316.91
273.133
60.3268
10.5868
8985.51
2463.62
587.932
131.471
22.9353
7794.15
1227.89
254.042
56.2615
9.89324
8572.94
2353.95
563.402
126.309
22.0635
7038.33
1153.1
246.319
55.4289
9.81955
7199.13
2071.69
508.721
115.888
20.4301
7248.91
1168.36
246.609
55.1453
9.73792
7576.65
2175.97
529.654
119.711
20.9945
6965.66