/*--------------------------------*- C++ -*----------------------------------*\
  =========                 |
  \\      /  F ield         | OpenFOAM: The Open Source CFD Toolbox
   \\    /   O peration     | Website:  https://openfoam.org
    \\  /    A nd           | Version:  11
     \\/     M anipulation  |
\*---------------------------------------------------------------------------*/
FoamFile
{
    format      ascii;
    class       volScalarField;
    location    "2.7";
    object      T;
}
// * * * * * * * * * * * * * * * * * * * * * * * * * * * * * * * * * * * * * //

dimensions      [0 0 0 1 0 0 0];

internalField   nonuniform List<scalar> 
5712
(
539.925
555.603
529.832
548.788
515.183
539.395
489.755
518.555
489.331
512.132
512.024
534.311
525.726
544.996
534.705
551.872
506.866
487.518
526.017
498.003
479.602
459.325
498.82
468.647
547.811
555.191
560.116
564.164
537.986
547.115
554.097
559.833
538.37
523.801
516.827
507.291
535.13
548.486
544.546
544.236
507.784
511.789
521.732
520.883
478.208
481.558
551.376
553.424
527.167
533.024
560.154
562.75
560.194
567.898
567.253
570.833
553.719
565.346
563.993
569.523
540.732
559.816
551.41
564.972
559.417
568.072
562.526
569.165
473.855
462.34
480.851
464.592
442.818
432.514
450.32
435.117
507.513
492.466
501.084
490.134
485.904
465.669
487.263
465.459
455.498
436.487
456.93
436.437
512.167
493.548
513.471
493.409
530.818
556.98
519.346
548.878
524.856
553.42
516.396
546.029
535.114
559.052
520.766
550.388
536.466
559.81
520.837
551.069
554.441
542.968
564.608
556.147
545.237
533.838
560.925
551.342
531.29
520.619
554.436
544.083
459.893
423.502
491.112
516.215
546.326
418.1
454.495
485.865
509.691
537.443
423.284
456.482
486.126
512.092
540.377
522.565
505.088
527.134
510.429
516.827
500.627
525.139
508.244
507.635
492.491
521.96
505.254
408.407
396.553
446.042
434.152
476.194
463.476
499.278
485.431
520.274
504.719
412.409
399.424
447.139
437.382
477.189
467.047
502.26
490.398
523.104
509.597
450.393
445.399
448.646
443.815
416.514
398.263
416.281
397.072
478.248
476.664
480.09
477.436
446.135
442.493
446.019
442.558
415.415
396.84
415.514
397.056
475.433
475.333
475.29
475.455
505.346
503.727
527.033
524.678
505.9
502.803
526.735
522.46
503.885
503.24
526.902
525.206
502.521
502.322
525.749
524.122
486.729
473.023
466.038
489.639
474.794
467.537
483.537
469.62
462.339
487.557
472.186
464.555
475.654
461.686
454.332
484.464
467.957
459.697
384.118
375.748
371.891
420.636
409.112
403.057
448.725
434.735
426.946
468.646
453.632
445.786
482.855
464.439
455.043
385.542
374.991
370.013
425.897
413.591
407.102
453.477
438.389
429.91
472.918
454.838
444.934
484.889
463.937
452.934
414.301
405.566
419.89
411.284
445.315
430.456
455.584
437.938
390.581
368.314
391.786
370.314
391.838
371.026
393.72
373.184
393.356
389.388
392.66
387.15
374.337
378.073
415.424
418.282
443.341
446.154
396.672
401.096
396.575
399.328
381.19
384.456
346.541
329.268
352.016
332.795
349.13
329.804
354.546
333.837
353.229
330.469
360.482
335.734
364.453
338.968
366.477
340.996
388.378
379.05
395.873
382.577
413.847
403.756
421.237
406.965
375.51
361.672
368.166
358.123
400.181
384.584
402.11
385.257
425.788
408.722
427.456
409.03
379.686
363.792
381.764
364.664
356.052
332.864
344.669
326.71
349.243
328.607
341.372
324.235
360.23
336.038
346.695
328.341
362.558
338.222
347.633
329.263
329.905
318.296
322.338
314.474
332.072
320.922
322.605
315.18
336.384
326.957
323.471
317.343
369.506
392.923
352.187
339.386
323.221
388.062
364.877
345.582
333.287
319.179
392.632
369.425
350.843
336.359
321.201
308.349
298.848
306.454
297.607
311.445
301.915
307.863
299.145
317.633
308.04
310.626
301.988
378.01
366.345
355.071
343.708
337.849
327.666
325.639
315.723
314.03
305.39
381.391
367.183
358.876
345.26
341.815
329.677
328.499
316.974
316.159
306.691
363.044
344.952
366.141
346.956
386.039
366.46
388.425
367.083
347.98
331.626
345.039
329.391
368.763
348.247
369.507
348.859
390.125
367.432
390.602
367.866
350.642
333.193
351.415
333.76
331.888
317.523
317.797
306.237
330.287
315.78
317.023
305.557
333.31
318.793
318.319
306.439
334.86
319.501
319.218
307.287
288.757
283.936
282.07
283.074
279.198
277.905
292.222
286.901
284.808
284.75
280.69
279.215
298.618
292.848
290.474
287.366
282.631
280.844
354.985
347.612
344.289
333.299
326.891
324.196
317.859
311.725
309.345
305.247
298.548
295.673
289.249
283.68
281.495
353.581
344.095
340.061
332.693
323.992
320.286
317.797
309.774
306.487
304.219
296.863
294.087
287.998
282.801
280.795
316.143
307.688
301.936
297.108
317.732
308.291
302.078
297.025
316.231
307.789
302.067
297.229
318.284
308.607
302.342
297.265
316.177
307.882
302.374
297.615
318.713
308.929
302.764
297.687
320.236
309.74
302.988
297.647
321.543
310.593
303.445
297.89
317.664
308.75
302.922
297.949
315.534
308.281
303.085
298.575
315.683
307.875
302.667
298.096
314.367
307.656
302.796
298.576
319.303
309.582
303.223
298.002
316.52
308.869
303.409
298.78
320.615
310.364
303.66
298.325
317.353
309.427
303.805
299.144
313.555
306.778
301.808
297.408
310.45
305.745
301.662
297.879
313.553
306.824
301.918
297.539
310.679
305.86
301.747
297.97
313.662
306.947
302.139
297.827
311.36
306.164
301.94
298.155
313.424
307.005
302.374
298.238
311.893
306.446
302.178
298.428
313.106
307.07
302.574
298.668
307.884
304.983
301.4
298.731
306.36
304.603
301.301
299.027
308.402
305.18
301.509
298.817
306.938
304.816
301.403
299.096
309.34
305.553
301.691
298.944
307.926
305.199
301.58
299.215
310.468
306.041
301.99
299.162
309.036
305.671
301.829
299.387
311.529
306.608
302.356
299.405
309.944
306.173
302.121
299.596
312.992
307.671
302.986
299.81
311.231
307.233
302.853
300.14
312.302
307.153
302.661
299.59
310.593
306.708
302.472
299.849
313.608
308.169
303.294
300.029
311.868
307.778
303.237
300.442
314.267
308.676
303.67
300.342
312.569
308.333
303.65
300.782
292.07
288.394
285.631
283.8
282.891
292.065
288.403
285.638
283.806
282.895
292.142
288.433
285.653
283.815
282.902
292.159
288.456
285.67
283.826
282.91
292.241
288.484
285.682
283.833
282.915
292.272
288.519
285.707
283.85
282.928
292.413
288.607
285.761
283.885
282.955
292.618
288.732
285.838
283.936
282.994
292.372
288.56
285.728
283.863
282.938
292.498
288.603
285.749
283.875
282.948
292.323
288.52
285.702
283.845
282.925
292.434
288.561
285.723
283.858
282.934
292.498
288.639
285.777
283.894
282.962
292.617
288.675
285.793
283.904
282.97
292.693
288.756
285.849
283.942
282.998
292.789
288.776
285.855
283.945
283.001
292.096
288.389
285.624
283.795
282.887
292.127
288.387
285.62
283.792
282.884
292.15
288.418
285.64
283.805
282.894
292.168
288.408
285.632
283.8
282.89
292.24
288.462
285.666
283.821
282.906
292.243
288.447
285.654
283.814
282.9
292.34
288.508
285.691
283.837
282.918
292.326
288.493
285.681
283.83
282.913
292.394
288.534
285.706
283.847
282.926
533.788
531.239
533.293
530.748
532.72
530.305
532.83
530.539
534.621
532.427
538.306
538.744
537.301
536.947
538.649
539.361
538.704
539.261
565.08
571.309
572.62
572.915
572.979
558.408
569.483
572.206
572.826
572.958
565.125
571.332
572.626
572.917
572.979
558.442
569.512
572.213
572.829
572.958
565.123
571.346
572.631
572.918
572.979
558.437
569.531
572.22
572.831
572.959
565.31
571.4
572.644
572.921
572.98
558.644
569.594
572.236
572.835
572.96
565.83
571.511
572.668
572.926
572.981
559.274
569.734
572.266
572.841
572.961
566.251
571.555
572.673
572.927
572.981
560.92
570.054
572.327
572.853
572.964
566.168
571.554
572.674
572.927
572.982
560.312
569.933
572.305
572.849
572.963
566.253
571.548
572.67
572.926
572.981
561.186
570.116
572.339
572.855
572.964
566.291
571.557
572.672
572.926
572.981
561.211
570.133
572.341
572.855
572.964
428.648
464.212
461.816
424.318
407.653
409.132
410.977
413.842
422.693
426.641
452.645
461.638
460.521
470.151
436.694
441.206
424.466
427.827
417.741
419.785
371.592
353.756
306.862
300.327
303.315
300.099
304.925
369.844
364.094
346.291
353.806
350.545
326.73
336.978
332.898
320.831
324.759
319.129
366.504
340.104
323.837
319.972
328.009
323.521
315.409
313.794
311.963
308.231
317.166
314.111
368.23
346.687
354.839
335.356
328.03
340.614
316.093
308.882
319.077
352.954
336.514
321.731
305.793
286.537
342.153
329.898
316.3
301.148
283.498
303.476
298.723
292.486
285.154
277.132
297.649
293.85
288.817
282.869
276.354
300.323
296.088
290.495
283.905
276.704
297.447
293.679
288.685
282.784
276.324
301.757
297.288
291.4
284.47
276.897
351.333
333.975
318.831
303.202
285.486
345.566
328.284
313.421
298.453
282.136
335.827
324.042
310.914
296.764
281.374
337.824
322.115
308.197
294.41
280.354
335.264
319.906
306.28
292.976
279.735
320.397
312.223
302.252
291.088
279.14
328.368
318.098
306.291
293.517
279.992
324.981
315.34
304.141
292.053
279.428
315.518
308.419
299.521
289.412
278.561
318.672
310.768
301.104
290.316
278.855
314.081
307.271
298.679
288.887
278.378
349.878
333.665
319.051
303.509
285.635
331.497
321.208
309.191
295.817
281.042
318.138
310.601
301.207
290.519
278.963
314.899
308.066
299.408
289.441
278.6
321.683
313.51
303.457
292.028
279.539
317.996
310.645
301.397
290.742
279.07
311.002
304.96
297.173
288.092
278.144
309.586
303.771
296.247
287.481
277.923
307.96
302.395
295.176
286.781
277.675
304.683
299.706
293.194
285.571
277.268
312.462
306.048
297.861
288.435
278.238
309.841
303.952
296.352
287.527
277.934
351.004
335.045
320.549
304.897
286.332
336.785
325.696
313.02
298.766
282.402
343.068
329.695
316.01
300.884
283.332
327.984
318.795
307.656
294.92
280.665
321.862
313.828
303.844
292.358
279.668
332.116
321.924
309.921
296.426
281.304
311.591
305.427
297.5
288.28
278.204
305.258
300.19
293.568
285.813
277.353
314.159
307.503
299.027
289.226
278.53
506.841
543.393
500.404
538.462
477.509
520.239
483.721
525.238
489.252
475.879
519.045
492.358
465.133
450.9
493.33
464.751
523.154
536.835
551.667
557.977
517.014
530.393
547.812
554.785
531.58
507.42
510.837
494.841
520.74
542.747
542.453
543.764
505.493
511.234
520.022
520.485
476.696
481.2
549.127
552.932
524.76
532.45
558.395
562.386
550.133
564.583
563.721
569.644
544.061
562.143
560.914
568.433
531.554
556.786
546.994
563.473
557.841
567.509
562.211
569.045
469.77
462.04
478.293
464.642
441.937
434.694
449.537
436.566
504.184
491.804
495.454
488.645
484.765
465.831
486.984
465.553
455.234
437.365
456.908
436.755
510.635
493.318
513.069
493.373
528.081
556.02
518.642
548.612
520.245
551.789
514.962
545.484
533.824
558.582
520.474
550.274
536.118
559.676
520.769
551.04
537.654
523.37
559.269
549.461
529.943
516.478
555.96
545.276
518.559
506.824
550.273
539.318
461.081
433.72
486.304
510.47
544.156
430.82
456.811
480.272
502.509
534.673
431.392
458.132
484.228
509.747
539.462
503.813
490.458
519.218
506.879
500.096
487.362
518.615
505.833
494.044
481.71
517.548
504.529
423.981
415.417
449.97
440.486
472.365
461.645
493.695
481.904
518.639
505.894
423.22
412.481
450.883
443.549
476.931
469.475
501.092
491.769
522.91
511.487
452.56
448.975
450.17
446.177
422.064
406.284
419.408
401.67
478.728
477.716
480.332
478.727
447.065
443.799
446.331
442.969
417.082
399.201
416.048
397.782
475.829
475.995
475.436
475.673
505.397
504.139
527.085
524.918
505.586
503.273
526.653
522.853
504.005
503.526
526.971
525.358
502.579
502.43
525.779
524.177
482.233
478.615
496.167
491.309
479.183
475.022
494.896
489.146
473.323
469.085
493.024
486.017
408.015
402.897
432.977
427.503
453.694
447.795
473.062
467.257
492.665
483.266
402.477
396.417
437.166
430.456
461.628
453.498
480.511
470.486
493.74
481.477
412.226
405.602
420.817
412.323
437.673
426.407
453.861
436.565
394.646
375.454
398.161
377.829
394.148
377.281
398.115
379.481
396.436
391.549
395.641
390.461
379.828
382.841
416.293
418.61
442.984
446.115
398.73
401.813
398.495
400.008
384.305
385.576
360.225
341.975
362.011
343.174
361.657
341.607
363.03
342.787
364.424
340.984
367.146
343.038
368.497
343.55
367.89
342.597
394.889
386.521
399.25
386.973
416.701
408.908
422.563
410.044
380.655
366.811
377.458
366.667
401.988
386.963
402.69
386.031
426.559
410.418
427.733
409.597
382.445
366.591
382.636
365.566
362.626
339.011
349.883
331.24
360.183
337.489
349.733
331.017
363.838
339.69
349.585
330.954
363.698
339.423
348.567
330.119
356.556
351.342
339.076
334.2
357.889
353.02
338.499
333.857
360.091
356.305
337.668
333.79
389.565
409.939
372.939
356.866
334.88
408.457
389.476
372.611
355.845
332.851
406.333
385.105
365.811
349.082
330.354
344.726
336.797
327.283
316.686
347.211
339.82
327.653
317.471
351.146
344.568
328.243
318.601
402.074
394.264
383.347
376.358
366.748
360.694
349.891
342.988
327.819
318.577
398.268
386.428
377.521
366.047
358.971
348.157
342.526
331.344
325.57
315.486
373.041
356.548
371.56
353.255
394.815
377.705
393.068
373.16
353.502
337.453
354.727
339.723
371.51
351.413
370.362
349.814
392.459
370.487
391.331
368.789
353.507
336.161
352.309
334.659
336.875
322.268
321.742
309.68
338.659
323.874
323.227
311.094
336.006
321.282
320.53
308.324
335.74
320.29
319.92
307.864
330.05
327.727
299.295
297.447
334.017
331.269
300.501
298.421
339.076
334.842
301.871
297.885
387.27
382.252
369.869
365.349
354.725
350.64
335.504
329.552
300.928
294.759
375.854
370.893
355.796
351.284
337.95
333.702
319.034
314.329
294.45
289.77
324.821
313.301
305.619
299.525
325.418
313.401
305.477
299.274
324.326
313.066
305.518
299.457
325.003
313.128
305.361
299.253
323.387
312.653
305.537
299.649
324.21
312.679
305.317
299.382
323.822
312.233
304.698
298.795
322.819
311.492
304.066
298.314
322.196
311.906
305.132
299.477
319.075
310.859
304.982
299.988
321.834
312.052
305.533
300.014
319.451
311.257
305.341
300.366
322.117
311.576
304.645
299.018
318.628
310.431
304.591
299.708
321.574
311.05
304.152
298.678
318.057
309.953
304.207
299.466
323.606
313.04
305.875
300.086
321.74
312.63
306.114
300.87
323.126
312.844
305.829
300.086
321.455
312.506
306.051
300.846
322.342
312.515
305.789
300.184
321.041
312.283
305.936
300.809
320.973
312.003
305.719
300.423
320.4
311.986
305.836
300.841
319.597
311.521
305.628
300.751
319.817
312.257
306.087
302.179
318.466
312.047
306.155
302.745
319.754
312.179
306.046
302.154
318.439
311.971
306.103
302.707
319.543
312.001
305.908
302.039
318.279
311.804
305.975
302.614
319.081
311.703
305.765
301.931
317.876
311.535
305.815
302.498
318.244
311.261
305.583
301.833
317.067
311.148
305.602
302.358
316.355
310.207
304.883
301.357
314.871
310.04
304.935
301.843
317.233
310.741
305.247
301.609
315.898
310.62
305.3
302.133
315.577
309.687
304.459
301.014
313.977
309.451
304.499
301.488
314.913
309.179
304.06
300.676
313.25
308.88
304.066
301.128
293.474
289.235
286.142
284.133
283.145
293.405
289.213
286.132
284.127
283.141
293.422
289.2
286.12
284.118
283.134
293.329
289.163
286.101
284.106
283.125
293.369
289.157
286.092
284.099
283.119
293.242
289.104
286.064
284.082
283.106
293.088
289.015
286.01
284.047
283.08
292.874
288.887
285.933
283.997
283.041
293.244
289.082
286.046
284.069
283.096
293.271
289.061
286.027
284.056
283.086
293.354
289.132
286.073
284.087
283.11
293.359
289.106
286.054
284.073
283.099
293.099
289
285.997
284.038
283.072
293.144
288.988
285.984
284.028
283.065
292.902
288.882
285.926
283.992
283.037
292.973
288.886
285.922
283.988
283.034
293.568
289.261
286.152
284.139
283.149
293.651
289.278
286.158
284.142
283.152
293.534
289.235
286.136
284.128
283.141
293.622
289.258
286.146
284.133
283.145
293.483
289.195
286.11
284.11
283.127
293.567
289.22
286.122
284.117
283.133
293.448
289.158
286.085
284.093
283.114
293.494
289.175
286.094
284.099
283.119
293.416
289.134
286.069
284.083
283.107
530.825
529.417
530.993
529.555
531.488
530.04
532.613
531.052
534.858
533.179
538.424
538.918
537.454
537.247
538.727
539.463
538.731
539.296
564.703
571.255
572.611
572.914
572.978
557.855
569.376
572.187
572.823
572.957
564.836
571.289
572.619
572.916
572.979
558.042
569.431
572.198
572.827
572.958
564.974
571.323
572.627
572.917
572.979
558.264
569.488
572.211
572.829
572.959
565.291
571.396
572.643
572.921
572.98
558.672
569.587
572.233
572.834
572.96
565.873
571.518
572.669
572.926
572.981
559.393
569.747
572.267
572.841
572.961
566.278
571.561
572.674
572.927
572.981
560.983
570.069
572.33
572.853
572.964
566.206
571.562
572.676
572.928
572.982
560.406
569.95
572.308
572.849
572.963
566.269
571.552
572.671
572.926
572.981
561.222
570.125
572.341
572.855
572.964
566.297
571.559
572.672
572.926
572.981
561.223
570.136
572.342
572.855
572.964
428.863
464.022
461.033
424.911
418.539
424.538
416.183
423.636
445.152
461.233
448.971
463.174
283.212
283.849
285.269
287.552
290.826
295.213
283.753
284.402
285.844
288.138
291.361
295.583
282.8
282.597
283.481
283.348
285.002
285.032
287.465
287.805
290.954
291.688
295.405
296.246
300.797
307.572
315.682
325.177
334.268
340.218
300.83
307.039
314.052
321.356
327.762
331.746
282.241
280.844
278.97
276.733
274.27
282.816
281.331
279.34
276.964
274.349
284.099
282.418
280.165
277.479
274.524
286.16
284.162
281.489
278.305
274.804
289.112
286.658
283.381
279.485
275.205
293.059
289.989
285.902
281.056
275.739
282.73
281.259
279.285
276.93
274.337
283.316
281.755
279.661
277.165
274.417
284.617
282.856
280.498
277.687
274.594
286.687
284.607
281.825
278.515
274.876
289.591
287.06
283.685
279.674
275.269
293.388
290.263
286.109
281.185
275.783
281.869
280.529
278.73
276.583
274.219
281.685
280.373
278.612
276.509
274.194
282.484
281.05
279.126
276.831
274.303
282.363
280.948
279.049
276.782
274.287
283.858
282.214
280.01
277.383
274.491
283.885
282.237
280.028
277.394
274.495
286.081
284.097
281.44
278.275
274.794
286.389
284.357
281.638
278.398
274.836
289.229
286.758
283.457
279.533
275.221
289.891
287.318
283.882
279.798
275.311
293.235
290.139
286.016
281.127
275.763
293.993
290.778
286.499
281.427
275.864
298.067
294.2
289.084
283.039
276.413
304.109
299.258
292.898
285.418
277.224
311.269
305.209
297.383
288.234
278.194
319.506
311.987
302.504
291.505
279.353
327.146
318.176
307.211
294.609
280.52
332.053
322.124
310.233
296.64
281.31
298.094
294.221
289.1
283.05
276.417
303.636
298.866
292.606
285.238
277.163
309.855
304.051
296.517
287.689
278.004
316.268
309.367
300.529
290.223
278.883
321.822
313.938
303.986
292.433
279.666
325.254
316.757
306.127
293.815
280.162
283.325
284.194
285.867
288.436
292.046
296.833
283.869
284.756
286.452
289.025
292.554
297.099
282.915
282.715
283.832
283.714
285.615
285.675
288.385
288.786
292.243
293.06
297.185
298.193
302.837
309.931
318.153
327.375
335.77
340.748
302.641
309.038
316.047
323.078
328.929
332.159
282.343
280.931
279.037
276.775
274.284
283.129
281.598
279.544
277.092
274.392
284.641
282.88
280.518
277.701
274.599
286.963
284.848
282.013
278.635
274.917
290.222
287.607
284.109
279.943
275.362
294.538
291.256
286.877
281.672
275.949
282.835
281.348
279.353
276.973
274.352
283.637
282.028
279.87
277.296
274.461
285.169
283.327
280.858
277.913
274.671
287.493
285.295
282.353
278.846
274.989
290.677
287.99
284.398
280.123
275.423
294.771
291.449
287.021
281.761
275.98
281.972
280.617
278.798
276.626
274.234
281.792
280.464
278.681
276.553
274.209
282.802
281.321
279.333
276.96
274.347
282.695
281.23
279.264
276.917
274.333
284.414
282.688
280.372
277.61
274.568
284.469
282.735
280.408
277.632
274.576
286.917
284.81
281.985
278.617
274.911
287.28
285.118
282.22
278.764
274.961
290.402
287.761
284.227
280.017
275.387
291.14
288.387
284.703
280.314
275.488
294.859
291.532
287.088
281.803
275.994
295.771
292.305
287.676
282.17
276.119
299.935
295.809
290.328
283.826
276.683
306.28
301.14
294.362
286.35
277.545
313.562
307.216
298.958
289.246
278.544
321.571
313.817
303.961
292.454
279.685
328.578
319.461
308.249
295.295
280.765
332.564
322.586
310.61
296.892
281.401
299.75
295.646
290.201
283.747
276.656
305.472
300.453
293.838
286.021
277.432
311.697
305.654
297.77
288.489
278.279
317.868
310.769
301.633
290.933
279.129
322.914
314.902
304.75
292.929
279.839
325.641
317.101
306.401
293.993
280.224
372.403
354.448
309.712
302.629
306.516
302.66
308.014
379.383
377.737
355.732
368.217
334.218
346.533
327.34
331.755
324.851
372.851
346.867
330.077
325.098
333.832
328.003
318.663
317.795
316.88
312.399
322.655
318.723
370.766
348.697
359.321
338.394
331.87
345.824
319.924
312.532
323.58
353.837
337.344
322.449
306.315
286.75
342.849
330.547
316.846
301.528
283.644
306.103
301.003
294.263
286.286
277.522
299.758
295.667
290.223
283.76
276.659
303.265
298.632
292.47
285.16
277.135
299.794
295.703
290.251
283.776
276.665
304.601
299.752
293.316
285.689
277.316
362.172
344.463
327.811
309.49
287.958
361.061
343.201
326.015
307.005
285.169
345.521
333.243
318.625
301.971
283.25
354.442
338.074
321.672
303.511
283.594
327.688
318.895
307.691
294.672
280.396
338.055
327.211
313.869
298.579
281.779
321.761
314.06
304.075
292.391
279.6
325.617
317.227
306.434
293.857
280.101
319.593
312.277
302.738
291.552
279.31
356.807
340.413
324.879
307.641
287.323
338.204
327.441
314.353
299.283
282.291
324.114
315.994
305.558
293.367
279.959
319.746
312.389
302.862
291.686
279.382
327.281
318.582
307.568
294.734
280.492
322.241
314.439
304.436
292.725
279.763
314.036
307.626
299.276
289.447
278.613
313.315
307.049
298.832
289.144
278.498
312.541
306.42
298.348
288.822
278.38
308.535
303.062
295.817
287.247
277.845
317.643
310.661
301.539
290.821
279.067
314.154
307.755
299.359
289.466
278.605
353.752
337.634
322.786
306.512
287.001
338.776
327.536
314.551
299.815
282.795
347.673
334.05
319.713
303.457
284.299
330.911
321.452
309.823
296.362
281.181
325.516
317.11
306.488
294.095
280.28
337.25
326.682
313.862
299.082
282.266
315.173
308.585
299.998
289.892
278.763
308.638
303.14
295.877
287.29
277.862
318.398
311.267
302.024
291.17
279.206
280.817
295.919
309.72
321.64
331.04
338.061
488.792
483.111
460.414
465.989
473.944
465.319
451.213
441.025
507.401
522.179
501.292
514.578
492.416
484.23
503.437
479.539
474.926
452.806
457.302
467.153
459.519
445.132
436.364
498.023
508.762
492.687
502.129
484.429
476.837
492.414
466.706
463.325
442.2
445.511
457.263
451.056
436.239
428.801
483.728
494.177
479.46
488.917
473.113
466.683
480.998
453.514
451.008
431.122
433.669
446.16
440.808
426.298
419.865
470.318
481.421
466.879
477.1
461.713
455.557
470.075
443.986
441.949
423.053
425.214
437.741
433.103
418.831
412.928
460.22
472.068
457.28
468.6
453.104
447.664
462.474
437.542
435.736
417.542
419.509
431.957
427.885
413.627
408.127
453.583
467.01
450.887
463.637
447.413
442.556
457.507
412.34
409.276
434.236
438.414
405.006
399.707
427.418
419.049
390.485
370.569
389.514
372.136
385.786
385.162
374.643
408.284
405.421
428.705
432.352
401.417
396.463
422.647
414.866
386.027
366.68
385.206
368.417
381.698
381.519
370.724
401.814
399.274
420.455
423.413
395.702
391.149
415.39
408.641
381.431
361.798
380.549
363.388
377.348
377.109
365.529
393.734
391.51
411.102
413.535
388.166
383.612
406.801
400.469
374.598
355.628
373.829
357.058
370.903
370.628
359.254
387.221
385.191
404.014
406.165
382.181
377.857
400.132
394.284
368.675
350.928
368.003
352.022
365.576
365.255
354.3
382.544
380.647
399.086
401.079
378.02
374.161
395.455
390.018
364.863
347.748
364.326
348.834
362.153
362.033
351.374
540.521
556.109
529.863
548.746
515.194
539.376
489.744
518.537
489.318
512.109
512.042
534.295
525.777
544.974
535.412
552.513
506.863
487.509
526.003
497.992
479.588
459.311
498.803
468.633
548.262
555.496
560.475
564.395
537.985
547.101
554.043
559.792
538.35
523.794
516.814
507.283
535.12
548.465
544.54
544.231
507.775
511.781
521.723
520.876
478.196
481.548
551.369
553.42
527.159
533.018
560.148
562.747
560.402
567.978
567.397
570.885
553.7
565.338
563.967
569.513
540.72
559.81
551.394
564.966
559.411
568.069
562.523
569.164
473.847
462.333
480.842
464.585
442.808
432.505
450.309
435.108
507.505
492.46
501.076
490.128
485.895
465.662
487.255
465.452
455.488
436.479
456.92
436.429
512.16
493.542
513.464
493.404
530.81
556.977
519.342
548.876
524.849
553.416
516.391
546.027
535.108
559.05
520.762
550.386
536.461
559.808
520.833
551.067
554.71
543.273
564.717
556.297
545.215
533.815
560.914
551.327
531.278
520.607
554.429
544.076
459.886
423.494
491.104
516.207
546.323
418.093
454.488
485.858
509.683
537.438
423.276
456.476
486.119
512.087
540.374
522.866
505.33
527.336
510.595
516.809
500.62
525.132
508.244
507.625
492.485
521.956
505.253
408.401
396.549
446.036
434.148
476.188
463.471
499.271
485.426
520.27
504.718
412.402
399.419
447.133
437.378
477.183
467.043
502.255
490.394
523.101
509.595
450.387
445.394
448.64
443.81
416.508
398.257
416.274
397.067
478.243
476.66
480.084
477.432
446.129
442.488
446.014
442.553
415.408
396.835
415.508
397.051
475.428
475.328
475.285
475.451
505.343
503.724
527.031
524.676
505.895
502.799
526.733
522.458
503.881
503.236
526.9
525.203
502.517
502.319
525.747
524.12
486.93
473.194
466.201
489.794
474.932
467.664
483.538
469.623
462.344
487.562
472.196
464.566
475.653
461.689
454.336
484.466
467.962
459.703
384.115
375.747
371.89
420.634
409.112
403.058
448.723
434.736
426.947
468.644
453.634
445.789
482.855
464.441
455.047
385.539
374.989
370.013
425.894
413.59
407.102
453.475
438.389
429.911
472.917
454.838
444.937
484.888
463.939
452.938
414.254
405.538
419.844
411.257
445.283
430.436
455.552
437.918
390.487
368.327
391.652
370.297
391.761
370.976
393.648
373.143
393.314
389.343
392.63
387.119
374.298
378.037
415.404
418.267
443.325
446.141
396.644
401.078
396.553
399.313
381.165
384.44
346.56
329.262
352.019
332.776
349.109
329.796
354.531
333.832
353.207
330.461
360.46
335.726
364.435
338.96
366.465
340.989
388.361
379.038
395.856
382.566
413.833
403.745
421.223
406.955
375.493
361.662
368.148
358.112
400.167
384.575
402.099
385.248
425.776
408.713
427.446
409.022
379.672
363.783
381.753
364.657
356.038
332.857
344.661
326.705
349.23
328.6
341.363
324.23
360.218
336.031
346.687
328.336
362.548
338.217
347.627
329.259
329.862
318.235
322.329
314.459
332.067
320.92
322.599
315.176
336.374
326.951
323.464
317.338
369.496
392.914
352.176
339.376
323.215
388.054
364.868
345.574
333.28
319.174
392.623
369.415
350.834
336.351
321.196
308.29
298.782
306.45
297.601
311.446
301.919
307.858
299.14
317.631
308.04
310.622
301.985
378.004
366.34
355.065
343.704
337.843
327.663
325.634
315.721
314.026
305.387
381.384
367.178
358.869
345.256
341.808
329.672
328.493
316.97
316.154
306.688
363.036
344.947
366.134
346.951
386.032
366.455
388.418
367.078
347.973
331.621
345.032
329.386
368.757
348.243
369.501
348.854
390.118
367.427
390.595
367.861
350.636
333.189
351.409
333.756
331.883
317.52
317.793
306.234
330.282
315.776
317.019
305.554
333.305
318.79
318.315
306.437
334.855
319.498
319.214
307.284
288.688
283.855
281.983
283.086
279.186
277.885
292.23
286.91
284.815
284.745
280.691
279.217
298.62
292.851
290.477
287.365
282.631
280.844
354.982
347.611
344.289
333.297
326.89
324.196
317.857
311.724
309.345
305.247
298.549
295.674
289.248
283.68
281.495
353.578
344.093
340.06
332.691
323.991
320.286
317.795
309.773
306.487
304.217
296.862
294.087
287.997
282.801
280.794
316.136
307.682
301.928
297.098
317.713
308.278
302.067
297.014
316.228
307.787
302.065
297.228
318.281
308.605
302.34
297.264
316.174
307.88
302.373
297.614
318.709
308.927
302.763
297.686
320.233
309.738
302.986
297.646
321.54
310.591
303.444
297.89
317.66
308.748
302.921
297.948
315.531
308.279
303.084
298.574
315.679
307.873
302.666
298.095
314.364
307.654
302.795
298.575
319.299
309.58
303.222
298.001
316.517
308.867
303.408
298.779
320.612
310.362
303.659
298.324
317.35
309.426
303.804
299.144
313.552
306.774
301.803
297.399
310.444
305.741
301.658
297.871
313.55
306.822
301.917
297.538
310.676
305.859
301.746
297.97
313.659
306.945
302.137
297.826
311.357
306.162
301.939
298.154
313.42
307.003
302.373
298.237
311.89
306.444
302.177
298.427
313.103
307.068
302.573
298.668
307.878
304.979
301.397
298.725
306.349
304.597
301.297
299.023
308.4
305.179
301.507
298.816
306.937
304.815
301.402
299.095
309.337
305.551
301.69
298.943
307.924
305.197
301.579
299.214
310.465
306.04
301.989
299.162
309.033
305.67
301.828
299.386
311.526
306.606
302.355
299.404
309.941
306.171
302.12
299.595
312.989
307.669
302.985
299.809
311.228
307.231
302.851
300.139
312.299
307.15
302.66
299.589
310.59
306.706
302.47
299.848
313.605
308.167
303.293
300.028
311.866
307.776
303.235
300.441
314.264
308.674
303.669
300.341
312.567
308.332
303.649
300.781
292.066
288.392
285.63
283.8
282.89
292.06
288.4
285.637
283.805
282.894
292.142
288.433
285.653
283.815
282.902
292.159
288.456
285.67
283.826
282.91
292.241
288.484
285.682
283.833
282.916
292.272
288.519
285.707
283.85
282.929
292.413
288.607
285.761
283.885
282.955
292.618
288.732
285.838
283.936
282.994
292.371
288.56
285.728
283.863
282.938
292.498
288.603
285.749
283.875
282.948
292.323
288.52
285.702
283.845
282.925
292.433
288.561
285.723
283.858
282.935
292.498
288.638
285.777
283.895
282.963
292.617
288.674
285.793
283.904
282.97
292.693
288.756
285.849
283.942
282.999
292.789
288.776
285.855
283.945
283.001
292.092
288.388
285.623
283.795
282.887
292.124
288.386
285.619
283.792
282.884
292.15
288.417
285.64
283.805
282.895
292.168
288.408
285.632
283.8
282.89
292.24
288.462
285.666
283.822
282.907
292.243
288.447
285.654
283.814
282.901
292.34
288.507
285.691
283.837
282.919
292.326
288.492
285.681
283.83
282.913
292.394
288.534
285.706
283.847
282.926
533.855
531.315
533.303
530.756
532.723
530.308
532.83
530.539
534.62
532.426
538.304
538.743
537.299
536.945
538.647
539.359
538.702
539.259
565.134
571.323
572.623
572.916
572.979
558.443
569.493
572.209
572.827
572.958
565.122
571.331
572.626
572.917
572.979
558.445
569.513
572.213
572.829
572.959
565.122
571.346
572.631
572.918
572.979
558.438
569.532
572.22
572.831
572.959
565.31
571.4
572.644
572.921
572.98
558.644
569.594
572.236
572.835
572.96
565.83
571.511
572.668
572.926
572.981
559.274
569.734
572.266
572.841
572.961
566.251
571.555
572.673
572.927
572.981
560.919
570.054
572.327