# vtk DataFile Version 2.0
tracks
ASCII
DATASET POLYDATA
POINTS 12065 float
-0.0206 0.000999956 1e-05 -0.02058 0.000999959 1e-05 -0.02056 0.000999965 1e-05 -0.02054 0.000999974
1e-05 -0.02052 0.000999985 1e-05 -0.0205 0.001 1e-05 -0.0202034 0.00100022 1e-05
-0.0199069 0.00100067 1e-05 -0.0196103 0.00100132 1e-05 -0.0193137 0.00100219 1e-05 -0.0190172
0.00100326 1e-05 -0.0187132 0.00100466 1e-05 -0.0184093 0.00100588 1e-05 -0.0181054 0.0010071
1e-05 -0.0178015 0.00100832 1e-05 -0.0174976 0.00100953 1e-05 -0.0172058 0.00101083 1e-05
-0.016914 0.00101193 1e-05 -0.0166222 0.00101303 1e-05 -0.0163305 0.00101413 1e-05 -0.0160387
0.00101523 1e-05 -0.0157586 0.00101636 1e-05 -0.0154784 0.00101745 1e-05 -0.0151983 0.00101856
1e-05 -0.0149182 0.00101972 1e-05 -0.0146381 0.0010209 1e-05 -0.0143747 0.00102209 1e-05
-0.0141113 0.00102327 1e-05 -0.0138479 0.00102449 1e-05 -0.0135846 0.00102574 1e-05 -0.0133621
0.00102682 1e-05 -0.0133484 0.00102689 1e-05 -0.0133346 0.00102695 1e-05 -0.0133209 0.00102702
1e-05 -0.0133072 0.00102709 1e-05 -0.0132934 0.00102716 1e-05 -0.0130353 0.00102845 1e-05
-0.0127771 0.00102975 1e-05 -0.0125189 0.00103107 1e-05 -0.0122607 0.0010324 1e-05 -0.0120025
0.00103376 1e-05 -0.0117547 0.00103506 1e-05 -0.0115068 0.00103638 1e-05 -0.0112589 0.0010377
1e-05 -0.0110111 0.00103903 1e-05 -0.0107632 0.00104036 1e-05 -0.0105252 0.00104163 1e-05
-0.0102873 0.00104291 1e-05 -0.0100493 0.00104419 1e-05 -0.00981133 0.00104547 1e-05 -0.00957337
0.00104675 1e-05 -0.00934491 0.00104797 1e-05 -0.00911645 0.00104919 1e-05 -0.008888 0.00105041
1e-05 -0.00865954 0.00105163 1e-05 -0.00843108 0.00105285 1e-05 -0.00821175 0.001054 1e-05
-0.00799242 0.00105516 1e-05 -0.00777309 0.00105632 1e-05 -0.00755376 0.00105747 1e-05 -0.00733443
0.00105861 1e-05 -0.00712387 0.0010597 1e-05 -0.0069133 0.0010608 1e-05 -0.00670273 0.00106188
1e-05 -0.00649216 0.00106297 1e-05 -0.0062816 0.00106405 1e-05 -0.00607944 0.00106507 1e-05
-0.00587729 0.0010661 1e-05 -0.00567514 0.00106713 1e-05 -0.00547298 0.00106815 1e-05 -0.00527083
0.00106916 1e-05 -0.00507675 0.00107013 1e-05 -0.00488267 0.00107109 1e-05 -0.0046886 0.00107206
1e-05 -0.00449452 0.00107302 1e-05 -0.00430044 0.00107397 1e-05 -0.00411412 0.00107488 1e-05
-0.0039278 0.00107579 1e-05 -0.00374147 0.0010767 1e-05 -0.00355515 0.00107761 1e-05 -0.00336883
0.00107851 1e-05 -0.00318995 0.00107937 1e-05 -0.00301107 0.00108023 1e-05 -0.00283219 0.00108109
1e-05 -0.00265331 0.00108194 1e-05 -0.00247443 0.0010828 1e-05 -0.0023027 0.00108361 1e-05
-0.00213097 0.00108443 1e-05 -0.00195924 0.00108525 1e-05 -0.0017875 0.00108607 1e-05 -0.00161577
0.00108688 1e-05 -0.0014509 0.00108766 1e-05 -0.00128603 0.00108844 1e-05 -0.00112116 0.00108923
1e-05 -0.000956289 0.00109002 1e-05 -0.000791418 0.00109081 1e-05 -0.000633135 0.00109156 1e-05
-0.000474851 0.00109233 1e-05 -0.000316567 0.00109309 1e-05 -0.000158284 0.00109386 1e-05 0
0.00109462 1e-05 0.000105677 0.00109513 1e-05 0.000211355 0.00109564 1e-05 0.000317032 0.00109615
1e-05 0.00042271 0.00109666 1e-05 0.000528387 0.00109716 1e-05 0.000634886 0.00109767 1e-05
0.000741385 0.00109817 1e-05 0.000847885 0.00109866 1e-05 0.000954384 0.00109916 1e-05 0.00106088
0.00109965 1e-05 0.00116821 0.00110014 1e-05 0.00127554 0.00110062 1e-05 0.00138286 0.0011011
1e-05 0.00149019 0.00110157 1e-05 0.00159752 0.00110203 1e-05 0.00170568 0.00110249 1e-05
0.00181384 0.00110294 1e-05 0.001922 0.00110338 1e-05 0.00203016 0.00110382 1e-05 0.00213833
0.00110424 1e-05 0.00224733 0.00110466 1e-05 0.00235633 0.00110507 1e-05 0.00246533 0.00110548
1e-05 0.00257434 0.00110587 1e-05 0.00268334 0.00110626 1e-05 0.00279319 0.00110663 1e-05
0.00290304 0.00110701 1e-05 0.00301289 0.00110737 1e-05 0.00312274 0.00110773 1e-05 0.00323259
0.00110808 1e-05 0.00334329 0.00110842 1e-05 0.003454 0.00110875 1e-05 0.0035647 0.00110908
1e-05 0.0036754 0.0011094 1e-05 0.00378611 0.00110971 1e-05 0.00389767 0.00111001 1e-05
0.00400924 0.00111031 1e-05 0.0041208 0.0011106 1e-05 0.00423237 0.00111088 1e-05 0.00434393
0.00111116 1e-05 0.00445636 0.00111142 1e-05 0.00456879 0.00111168 1e-05 0.00468123 0.00111193
1e-05 0.00479366 0.00111218 1e-05 0.00490609 0.00111241 1e-05 0.0050194 0.00111264 1e-05
0.0051327 0.00111286 1e-05 0.00524601 0.00111308 1e-05 0.00535932 0.00111328 1e-05 0.00547262
0.00111348 1e-05 0.00558681 0.00111367 1e-05 0.005701 0.00111386 1e-05 0.00581518 0.00111403
1e-05 0.00592937 0.0011142 1e-05 0.00604356 0.00111436 1e-05 0.00615863 0.00111451 1e-05
0.00627371 0.00111466 1e-05 0.00638878 0.0011148 1e-05 0.00650386 0.00111493 1e-05 0.00661893
0.00111505 1e-05 0.0067349 0.00111517 1e-05 0.00685087 0.00111527 1e-05 0.00696684 0.00111538
1e-05 0.00708281 0.00111547 1e-05 0.00719878 0.00111555 1e-05 0.00731485 0.00111563 1e-05
0.00743092 0.0011157 1e-05 0.00754698 0.00111576 1e-05 0.00766305 0.00111581 1e-05 0.00777255
0.00111586 1e-05 0.00777466 0.00111586 1e-05 0.00777678 0.00111586 1e-05 0.0077789 0.00111586
1e-05 0.00778102 0.00111586 1e-05 0.00778313 0.00111586 1e-05 0.00790091 0.0011159 1e-05
0.00801869 0.00111593 1e-05 0.00813647 0.00111595 1e-05 0.00825425 0.00111596 1e-05 0.00837203
0.00111597 1e-05 0.00849073 0.00111596 1e-05 0.00860942 0.00111595 1e-05 0.00872812 0.00111593
1e-05 0.00884682 0.00111591 1e-05 0.00896551 0.00111587 1e-05 0.00908513 0.00111582 1e-05
0.00920475 0.00111577 1e-05 0.00932437 0.00111571 1e-05 0.00944398 0.00111564 1e-05 0.0095636
0.00111556 1e-05 0.00968415 0.00111546 1e-05 0.0098047 0.00111537 1e-05 0.00992525 0.00111526
1e-05 0.0100458 0.00111515 1e-05 0.0101663 0.00111503 1e-05 0.0102878 0.00111489 1e-05
0.0104093 0.00111475 1e-05 0.0105308 0.0011146 1e-05 0.0106523 0.00111444 1e-05 0.0107738
0.00111428 1e-05 0.0108962 0.00111409 1e-05 0.0110186 0.0011139 1e-05 0.0111411 0.00111371
1e-05 0.0112635 0.0011135 1e-05 0.0113859 0.00111329 1e-05 0.0115093 0.00111305 1e-05
0.0116327 0.00111282 1e-05 0.0117561 0.00111258 1e-05 0.0118795 0.00111233 1e-05 0.0120028
0.00111207 1e-05 0.0121272 0.00111178 1e-05 0.0122515 0.0011115 1e-05 0.0123759 0.00111121
1e-05 0.0125002 0.00111091 1e-05 0.0126245 0.0011106 1e-05 0.0127498 0.00111027 1e-05
0.0128752 0.00110994 1e-05 0.0130005 0.0011096 1e-05 0.0131258 0.00110925 1e-05 0.0132511
0.00110889 1e-05 0.0133774 0.00110851 1e-05 0.0135036 0.00110812 1e-05 0.0136299 0.00110773
1e-05 0.0137562 0.00110733 1e-05 0.0138825 0.00110692 1e-05 0.0140098 0.00110649 1e-05
0.014137 0.00110605 1e-05 0.0142643 0.00110561 1e-05 0.0143915 0.00110515 1e-05 0.0145188
0.00110469 1e-05 0.0146471 0.00110421 1e-05 0.0147753 0.00110372 1e-05 0.0149036 0.00110322
1e-05 0.0150318 0.00110271 1e-05 0.0151601 0.00110219 1e-05 0.0152893 0.00110166 1e-05
0.0154186 0.00110112 1e-05 0.0155478 0.00110056 1e-05 0.0156771 0.0011 1e-05 0.0158063
0.00109943 1e-05 0.0159366 0.00109884 1e-05 0.0160668 0.00109825 1e-05 0.0161971 0.00109764
1e-05 0.0163273 0.00109702 1e-05 0.0164576 0.00109639 1e-05 0.0165889 0.00109576 1e-05
0.0167201 0.0010951 1e-05 0.0168514 0.00109444 1e-05 0.0169827 0.00109377 1e-05 0.0171139
0.00109308 1e-05 0.0172462 0.00109239 1e-05 0.0173785 0.00109169 1e-05 0.0175108 0.00109097
1e-05 0.0176431 0.00109024 1e-05 0.0177754 0.0010895 1e-05 0.0179087 0.00108876 1e-05
0.018042 0.00108799 1e-05 0.0181753 0.00108722 1e-05 0.0183087 0.00108643 1e-05 0.018442
0.00108564 1e-05 0.0185763 0.00108484 1e-05 0.0187107 0.00108402 1e-05 0.018845 0.00108319
1e-05 0.0189794 0.00108234 1e-05 0.0191137 0.00108149 1e-05 0.0192491 0.00108064 1e-05
0.0193845 0.00107977 1e-05 0.0195199 0.00107887 1e-05 0.0196553 0.00107797 1e-05 0.0197907
0.00107707 1e-05 0.0199272 0.00107616 1e-05 0.0200636 0.00107523 1e-05 0.0202001 0.00107428
1e-05 0.0203365 0.00107332 1e-05 0.020473 0.00107236 1e-05 0.0206105 0.0010714 1e-05
0.020748 0.00107042 1e-05 0.0208855 0.00106941 1e-05 0.021023 0.00106838 1e-05 0.0211606
0.00106737 1e-05 0.0212991 0.00106636 1e-05 0.0214377 0.00106531 1e-05 0.0215763 0.00106425
1e-05 0.0217149 0.00106317 1e-05 0.0218535 0.0010621 1e-05 0.0219931 0.00106102 1e-05
0.0221328 0.00105993 1e-05 0.0222724 0.0010588 1e-05 0.0224121 0.00105766 1e-05 0.0225517
0.00105653 1e-05 0.0226925 0.00105541 1e-05 0.0228332 0.00105425 1e-05 0.022974 0.00105306
1e-05 0.0231147 0.00105187 1e-05 0.0232555 0.00105068 1e-05 0.0233973 0.00104949 1e-05
0.0235391 0.00104828 1e-05 0.023681 0.00104703 1e-05 0.0238228 0.00104578 1e-05 0.0239647
0.00104453 1e-05 0.0241076 0.00104329 1e-05 0.0242505 0.00104201 1e-05 0.0243935 0.00104071
1e-05 0.0245364 0.00103939 1e-05 0.0246794 0.00103809 1e-05 0.0248234 0.00103678 1e-05
0.0249675 0.00103545 1e-05 0.0251115 0.00103408 1e-05 0.0252556 0.00103271 1e-05 0.0253996
0.00103134 1e-05 0.0255448 0.00102998 1e-05 0.02569 0.00102858 1e-05 0.0258351 0.00102716
1e-05 0.0259803 0.00102572 1e-05 0.0261255 0.00102429 1e-05 0.0262718 0.00102286 1e-05
0.0264181 0.0010214 1e-05 0.0265644 0.00101992 1e-05 0.0267107 0.00101843 1e-05 0.026857
0.00101694 1e-05 0.0270044 0.00101544 1e-05 0.0271519 0.00101392 1e-05 0.0272993 0.00101237
1e-05 0.0274468 0.00101081 1e-05 0.0275942 0.00100926 1e-05 0.0277428 0.0010077 1e-05
0.0278914 0.0010061 1e-05 0.0280399 0.00100449 1e-05 0.0281885 0.00100287 1e-05 0.0283371
0.00100125 1e-05 0.0284869 0.000999619 1e-05 0.0286366 0.000997958 1e-05 0.0287863 0.000996282
1e-05 0.0289361 0.000994596 1e-05 0.0290858 0.000992902 1e-05 0.0292367 0.000991202 1e-05
0.0293876 0.00098947 1e-05 0.0295385 0.000987726 1e-05 0.0296894 0.000985971 1e-05 0.0298403
0.000984205 1e-05 0.0299924 0.000982432 1e-05 0.0301445 0.000980628 1e-05 0.0302966 0.000978813
1e-05 0.0304486 0.000976987 1e-05 0.0306007 0.000975149 1e-05 0.030754 0.0009733 1e-05
0.0309072 0.000971423 1e-05 0.0310605 0.000969535 1e-05 0.0312138 0.000967635 1e-05 0.031367
0.000965723 1e-05 0.0315215 0.000963795 1e-05 0.0316759 0.000961842 1e-05 0.0318304 0.000959877
1e-05 0.0319848 0.0009579 1e-05 0.0321393 0.000955911 1e-05 0.0322949 0.000953901 1e-05
0.0324506 0.00095187 1e-05 0.0326062 0.000949825 1e-05 0.0327619 0.000947768 1e-05 0.0329175
[...]
POINT_DATA 12065
FIELD attributes 4
age 1 12065 float
-9.99973e-06 -7.99975e-06 -5.99979e-06 -3.99984e-06 -1.99991e-06 0 2.96554e-05 5.93049e-05 8.89483e-05 0.000118586 0.000148217
0.000178568 0.000208911 0.00023924 0.000269556 0.000299858 0.000328932 0.000357998 0.000387053 0.000416096 0.000445127
0.000472987 0.000500841 0.000528688 0.000556529 0.000584362 0.000610527 0.000636688 0.000662846 0.000689 0.000711087
0.00071245 0.000713814 0.000715177 0.00071654 0.000717904 0.000743535 0.000769164 0.000794792 0.000820419 0.000846045
0.000870645 0.000895246 0.000919848 0.00094445 0.000969053 0.000992675 0.0010163 0.00103992 0.00106355 0.00108718
0.00110987 0.00113256 0.00115526 0.00117795 0.00120066 0.00122246 0.00124426 0.00126606 0.00128787 0.00130968
0.00133063 0.00135158 0.00137253 0.00139349 0.00141445 0.00143459 0.00145472 0.00147486 0.001495 0.00151514
0.0015345 0.00155385 0.0015732 0.00159256 0.00161192 0.00163052 0.00164912 0.00166772 0.00168633 0.00170494
0.00172282 0.0017407 0.00175857 0.00177646 0.00179435 0.00181154 0.00182872 0.0018459 0.00186309 0.00188028
0.00189681 0.00191332 0.00192983 0.00194635 0.00196288 0.00197876 0.00199463 0.0020105 0.00202637 0.00204225
0.00205286 0.00206347 0.00207407 0.00208468 0.00209528 0.00210599 0.00211668 0.00212737 0.00213807 0.00214876
0.00215956 0.00217034 0.00218112 0.00219191 0.0022027 0.00221358 0.00222446 0.00223533 0.00224621 0.00225709
0.00226807 0.00227904 0.00229002 0.00230099 0.00231197 0.00232305 0.00233411 0.00234518 0.00235626 0.00236734
0.00237851 0.00238968 0.00240085 0.00241203 0.00242321 0.00243449 0.00244576 0.00245704 0.00246832 0.00247961
0.002491 0.00250238 0.00251376 0.00252515 0.00253655 0.00254805 0.00255954 0.00257104 0.00258254 0.00259405
0.00260566 0.00261727 0.00262889 0.00264051 0.00265214 0.00266387 0.0026756 0.00268734 0.00269908 0.00271083
0.00272268 0.00273454 0.0027464 0.00275827 0.00277015 0.00278205 0.00279395 0.00280587 0.00281778 0.00282904
0.00282925 0.00282947 0.00282969 0.00282991 0.00283013 0.00284224 0.00285436 0.00286649 0.00287863 0.00289078
0.00290304 0.0029153 0.00292757 0.00293985 0.00295215 0.00296456 0.00297697 0.00298939 0.00300182 0.00301426
0.00302683 0.00303939 0.00305196 0.00306454 0.00307714 0.00308987 0.00310259 0.00311532 0.00312806 0.00314082
0.00315372 0.0031666 0.00317949 0.0031924 0.00320531 0.00321839 0.00323144 0.0032445 0.00325757 0.00327066
0.00328391 0.00329714 0.00331037 0.00332362 0.00333688 0.00335031 0.00336371 0.00337713 0.00339055 0.00340399
0.00341762 0.0034312 0.00344479 0.0034584 0.00347203 0.00348584 0.00349961 0.00351339 0.00352719 0.003541
0.00355501 0.00356897 0.00358295 0.00359694 0.00361095 0.00362515 0.00363932 0.00365349 0.00366768 0.00368189
0.00369629 0.00371066 0.00372503 0.00373942 0.00375384 0.00376845 0.00378302 0.0037976 0.00381219 0.00382682
0.00384163 0.00385641 0.00387119 0.00388599 0.00390083 0.00391585 0.00393085 0.00394584 0.00396085 0.0039759
0.00399113 0.00400634 0.00402155 0.00403677 0.00405204 0.00406748 0.00408291 0.00409833 0.00411377 0.00412926
0.00414492 0.00416057 0.00417621 0.00419186 0.00420757 0.00422345 0.00423932 0.00425518 0.00427107 0.00428699
0.00430309 0.00431919 0.00433527 0.00435138 0.00436754 0.00438386 0.00440017 0.00441649 0.00443283 0.0044492
0.00446575 0.00448229 0.00449884 0.0045154 0.004532 0.00454878 0.00456555 0.00458232 0.00459912 0.00461595
0.00463295 0.00464995 0.00466696 0.00468398 0.00470104 0.00471827 0.0047355 0.00475274 0.00477 0.00478729
0.00480475 0.00482222 0.00483969 0.00485718 0.00487471 0.0048924 0.0049101 0.00492781 0.00494554 0.0049633
0.00498123 0.00499916 0.00501711 0.00503508 0.00505307 0.00507123 0.00508941 0.00510759 0.0051258 0.00514403
0.00516243 0.00518084 0.00519926 0.00521771 0.00523617 0.00525481 0.00527347 0.00529213 0.00531082 0.00532952
0.0053484 0.00536729 0.0053862 0.00540513 0.00542408 0.0054432 0.00546234 0.00548149 0.00550066 0.00551985
0.00553921 0.00555859 0.00557799 0.00559741 0.00561684 0.00563645 0.00565608 0.00567572 0.00569538 0.00571507
0.00573492 0.00575479 0.00577468 0.00579459 0.00581452 0.00583009 0.00584566 0.00586125 0.00587684 0.00589191
0.00589657 0.00590124 0.0059059 0.00591057 0.00591524 0.0059356 0.00595597 0.00597636 0.00599677 0.00601721
0.00603782 0.00605844 0.00607909 0.00609976 0.00612045 0.00614131 0.0061622 0.0061831 0.00620403 0.00622497
0.00624609 0.00626724 0.0062884 0.00630958 0.00633079 0.00635217 0.00637358 0.006395 0.00641645 0.00643791
0.00645956 0.00648122 0.00650291 0.00652462 0.00654635 0.00656826 0.00659019 0.00661215 0.00663412 0.00665612
0.00667829 0.00670049 0.00672271 0.00674496 0.00676722 0.00678966 0.00681213 0.00683462 0.00685714 0.00687967
0.00690239 0.00692513 0.0069479 0.00697069 0.00699349 0.00701648 0.0070395 0.00706254 0.00708561 0.00710868
0.00713195 0.00715525 0.00717857 0.00720192 0.00722527 0.00724882 0.0072724 0.00729601 0.00731963 0.00734327
0.0073671 0.00739097 0.00741486 0.00743877 0.0074627 0.00748682 0.00751097 0.00753515 0.00755935 0.00758357
0.00760798 0.00763243 0.0076569 0.00768139 0.0077059 0.00773061 0.00775535 0.00778012 0.00780491 0.00782971
0.00785473 0.00787977 0.00790484 0.00792993 0.00795504 0.00798036 0.00800571 0.00803108 0.00805647 0.00808189
0.00810752 0.00813318 0.00815886 0.00818457 0.00821029 0.00823624 0.00826222 0.00828821 0.00831423 0.00834028
0.00835631 0.00837235 0.0083884 0.00840446 0.00841986 0.00843026 0.00844067 0.00845107 0.00846149 0.0084719
0.0084985 0.00852512 0.00855177 0.00857844 0.00860514 0.00863207 0.00865903 0.00868602 0.00871303 0.00874007
0.00876734 0.00879464 0.00882197 0.00884932 0.00887671 0.00890432 0.00893197 0.00895965 0.00898736 0.0090151
0.00904307 0.00907107 0.00909911 0.00912718 0.00915527 0.0091836 0.00921196 0.00924037 0.00926881 0.00929727
0.00932596 0.0093547 0.00938348 0.00941229 0.00944112 0.00947019 0.00949931 0.00952847 0.00955766 0.00958688
0.00961634 0.00964584 0.00967539 0.00970497 0.00973458 0.00976443 0.00979434 0.00982428 0.00985426 0.00988427
0.00991453 0.00994484 0.00997519 0.0100056 0.010036 0.0100667 0.0100974 0.0101282 0.010159 0.0101898
0.0102209 0.0102521 0.0102833 0.0103145 0.0103458 0.010352 0.0103582 0.0103643 0.0103705 0.0103766
0.0104021 0.0104275 0.010453 0.0104785 0.010504 0.010536 0.010568 0.0106001 0.0106323 0.0106645
0.010697 0.0107295 0.0107621 0.0107947 0.0108274 0.0108603 0.0108933 0.0109264 0.0109595 0.0109927
0.0110262 0.0110597 0.0110933 0.0111269 0.0111606 0.0111946 0.0112286 0.0112628 0.0112969 0.0113311
0.0113657 0.0114002 0.0114349 0.0114696 0.0115044 0.0115395 0.0115746 0.0116098 0.0116451 0.0116804
0.0117161 0.0117518 0.0117876 0.0118235 0.0118594 0.0118692 0.011879 0.0118888 0.0118987 0.0119083
0.0119349 0.0119614 0.0119881 0.0120147 0.0120414 0.0120783 0.0121152 0.0121522 0.0121893 0.0122264
0.0122639 0.0123015 0.0123391 0.0123768 0.0124146 0.0124528 0.012491 0.0125293 0.0125677 0.0126061
0.012645 0.0126839 0.0127228 0.0127619 0.0128011 0.0128406 0.0128802 0.0129199 0.0129597 0.0129996
0.0130399 0.0130803 0.0131207 0.0131613 0.0132019 0.0132238 0.0132458 0.0132677 0.0132897 0.0133109
0.0133304 0.0133498 0.0133692 0.0133887 0.0134082 0.0134501 0.013492 0.0135341 0.0135762 0.0136185
0.0136611 0.0137039 0.0137468 0.0137898 0.0138329 0.0138764 0.0139201 0.0139638 0.0140077 0.0140517
0.0140961 0.0141407 0.0141854 0.0142302 0.0142751 0.0143205 0.014366 0.0144116 0.0144574 0.0145033
0.0145338 0.0145644 0.0145951 0.0146258 0.0146552 0.0146715 0.0146878 0.0147041 0.0147204 0.0147367
0.0147842 0.0148317 0.0148794 0.0149272 0.0149752 0.0150237 0.0150723 0.0151211 0.01517 0.0152191
0.0152687 0.0153185 0.0153684 0.0154185 0.0154688 0.0155195 0.0155705 0.0156216 0.0156729 0.0157244
0.0157764 0.0158286 0.015881 0.0159335 0.0159863 0.0159874 0.0159884 0.0159895 0.0159906 0.0159917
0.016044 0.0160964 0.016149 0.0162018 0.0162548 0.0163094 0.0163643 0.0164193 0.0164745 0.01653
0.0165861 0.0166423 0.0166988 0.0167555 0.0168124 0.0168699 0.0169276 0.0169856 0.0170438 0.0171022
0.0171544 0.0172068 0.0172593 0.017312 0.0173627 0.0173702 0.0173776 0.0173851 0.0173925 0.0174
0.0174607 0.0175216 0.0175827 0.0176441 0.0177058 0.0177681 0.0178307 0.0178935 0.0179566 0.01802
0.0180841 0.0181484 0.018213 0.0182778 0.018343 0.0184089 0.018475 0.0185415 0.0186082 0.0186752
0.0187022 0.0187292 0.0187563 0.0187834 0.0188101 0.0188514 0.0188927 0.0189342 0.0189757 0.0190174
0.0190871 0.0191572 0.0192275 0.0192981 0.0193691 0.0194409 0.0195129 0.0195853 0.019658 0.019731
0.0198049 0.0198791 0.0199536 0.0200285 0.0201037 0.0201586 0.0202137 0.020269 0.0203244 0.020379
0.0204007 0.0204225 0.0204442 0.020466 0.0204879 0.0205662 0.0206449 0.020724 0.0208034 0.0208831
0.0209638 0.0210449 0.0211263 0.021208 0.0212902 0.0213733 0.0214568 0.0215406 0.0216248 0.0217094
0.0217907 0.0218724 0.0219544 0.0220367 0.0221185 0.0221231 0.0221277 0.0221323 0.0221369 0.0221416
0.0222298 0.0223184 0.0224074 0.0224968 0.0225866 0.0226775 0.0227688 0.0228604 0.0229525 0.023045
0.0231386 0.0232326 0.023327 0.0234219 0.0235171 0.0236135 0.0237104 0.0238077 0.0239054 0.0240035
0.0240207 0.0240379 0.0240551 0.0240723 0.0240896 0.024172 0.0242548 0.0243378 0.0244211 0.0245048
0.024607 0.0247097 0.0248129 0.0249164 0.0250204 0.0251257 0.0252314 0.0253376 0.0254442 0.0255513
0.0256596 0.0257684 0.0258777 0.0259874 0.0260976 0.0261511 0.0262048 0.0262585 0.0263123 0.0263666
0.0264251 0.0264838 0.0265426 0.0266015 0.0266605 0.0267752 0.0268904 0.0270061 0.0271222 0.0272388
0.0273568 0.0274752 0.0275941 0.0277135 0.0278334 0.0279546 0.0280764 0.0281986 0.0283214 0.0284446
0.0285604 0.0286767 0.0287934 0.0289105 0.0290299 0.0290385 0.0290471 0.0290557 0.0290643 0.0290729
0.029201 0.0293295 0.0294586 0.0295881 0.0297181 0.0298496 0.0299815 0.030114 0.030247 0.0303804
0.0305152 0.0306506 0.0307865 0.0309229 0.0310597 0.0311981 0.0313369 0.0314763 0.0316162 0.0317565
0.0318329 0.0319094 0.0319862 0.032063 0.0321406 0.0322065 0.0322726 0.0323387 0.032405 0.0324713
0.0326167 0.0327627 0.0329091 0.0330561 0.0332034 0.0333524 0.0335019 0.033652 0.0338025 0.0339535
0.034106 0.0342591 0.0344127 0.0345669 0.0347214 0.0348776 0.0350343 0.0351915 0.0353492 0.0355073
0.0355091 0.0355109 0.0355127 0.0355144 0.0355162 0.0356743 0.0358328 0.0359918 0.0361513 0.0363112
0.0364746 0.0366384 0.0368028 0.0369677 0.037133 0.0372999 0.0374673 0.0376353 0.0378037 0.0379725
0.038143 0.038314 0.0384855 0.0386574 0.0388297 0.0388874 0.0389451 0.0390029 0.0390607 0.0391182
0.0392352 0.0393524 0.0394698 0.0395873 0.0397051 0.0398826 0.0400607 0.0402391 0.040418 0.0405973
0.0407783 0.0409597 0.0411417 0.041324 0.0415067 0.041691 0.0418759 0.0420611 0.0422467 0.0424327
0.0425028 0.042573 0.0426432 0.0427134 0.042783 0.0429012 0.0430196 0.0431381 0.0432567 0.0433755
0.0435665 0.0437578 0.0439494 0.0441414 0.0443337 0.0445277 0.044722 0.0449167 0.0451117 0.045307
0.0455039 0.0457011 0.0458986 0.0460963 0.0462943 0.0463107 0.046327 0.0463434 0.0463598 0.0463761
0.0465595 0.0467431 0.0469269 0.0471108 0.0472949 0.0474971 0.0476994 0.047902 0.0481047 0.0483075
0.0485118 0.0487163 0.048921 0.0491257 0.0493305 0.0494362 0.0495419 0.0496476 0.0497534 0.0498586
0.0499594 0.0500601 0.0501608 0.0502615 0.0503623 0.0505701 0.050778 0.0509858 0.0511936 0.0514012
0.0516102 0.0518192 0.0520281 0.0522368 0.0524452 0.0526139 0.0527824 0.0529508 0.0531191 0.0532914
0.0533315 0.0533716 0.0534117 0.0534517 0.0534918 0.0537019 0.0539118 0.0541213 0.0543306 0.0545392
0.0547491 0.0549587 0.0551679 0.0553767 0.0555847 0.055794 0.0560028 0.0562111 0.0564189 0.0566256
0.0566751 0.0567246 0.056774 0.0568233 0.0568746 0.0570321 0.0571892 0.057346 0.0575025 0.0576583
0.0578645 0.0580701 0.058275 0.0584791 0.0586815 0.0588766 0.0590712 0.0592651 0.0594581 0.0596495
0.0597301 0.0598104 0.0598906 0.0599706 0.0600555 0.0601705 0.0602852 0.0603995 0.0605133 0.0606266
0.0608263 0.0610246 0.0612218 0.0614177 0.0616119 0.0618125 0.0620118 0.0622096 0.0624059 0.0626005
0.0626231 0.0626457 0.0626682 0.0626908 0.0627138 0.0628911 0.063067 0.0632418 0.0634152 0.0635872
0.0637873 0.0639856 0.0641823 0.0643771 0.0645701 0.0647689 0.0649658 0.0651608 0.065354 0.0655453
0.0655912 0.0656369 0.0656826 0.0657282 0.0657766 0.0659253 0.0660728 0.0662192 0.0663645 0.0665087
0.0667034 0.066896 0.0670866 0.0672753 0.0674622 0.0676544 0.0678445 0.0680326 0.0682187 0.068403
0.0685925 0.0687799 0.0689654 0.0691488 0.0693305 0.069393 0.0694553 0.0695173 0.0695791 0.0696478
0.0697684 0.0698881 0.070007 0.0701251 0.0702425 0.0704265 0.0706086 0.0707887 0.0709669 0.0711434
0.0713249 0.0715045 0.071682 0.0718577 0.0720318 0.0722109 0.072388 0.0725631 0.0727365 0.0729083
0.0730851 0.0732599 0.0734329 0.0736042 0.0737739 0.0739485 0.0741212 0.0742922 0.0744615 0.0746292
0.0748019 0.0749727 0.0751419 0.0753094 0.0754754 0.075541 0.0756064 0.0756715 0.0757364 0.0758116
0.0759127 0.0760131 0.076113 0.0762124 0.0763111 0.0764804 0.0766479 0.0768138 0.0769782 0.0771411
0.0773088 0.0774748 0.0776392 0.0778021 0.0779636 0.0781301 0.078295 0.0784582 0.0786199 0.0787801
0.0789449 0.0791077 0.0792688 0.0794285 0.0795873 0.0797514 0.0799143 0.0800758 0.0802353 0.0803925
0.080553 0.0807106 0.0808652 0.0810187 0.0811722 -9.99997e-06 -7.99997e-06 -5.99998e-06 -3.99998e-06 -1.99999e-06
0 2.96566e-05 5.93127e-05 8.89677e-05 0.000118621 0.000148273 0.000178656 0.000209037 0.000239415 0.000269789
0.000300159 0.00032931 0.000358456 0.000387597 0.000416733 0.000445864 0.000473826 0.000501784 0.000529736 0.000557683
0.000585626 0.000612448 0.000639266 0.000666079 0.000692889 0.000719694 0.000745424 0.000771149 0.000796871 0.00082259
0.000848304 0.000872987 0.000897666 0.000922342 0.000947014 0.000971683 0.000995363 0.00101904 0.00104271 0.00106638
0.00109005 0.00111277 0.00113548 0.0011582 0.0011809 0.00120361 0.00122541 0.0012472 0.00126899 0.00129078
0.00131257 0.00133349 0.0013544 0.00137531 0.00139621 0.00141712 0.00143719 0.00145725 0.00147731 0.00149738
0.00151743 0.00153669 0.00155594 0.0015752 0.00159445 0.00161369 0.00163217 0.00165065 0.00166912 0.00168759
0.00170606 0.00172379 0.00174152 0.00175925 0.00177698 0.0017947 0.00181172 0.00182873 0.00184574 0.00186275
0.00187976 0.00189609 0.00191241 0.00192874 0.00194506 0.00196138 0.00197705 0.00199272 0.00200838 0.00202405
0.00203971 0.00205017 0.00206062 0.00207108 0.00208153 0.00209199 0.00210252 0.00211306 0.00212359 0.00213412
0.00214465 0.00215527 0.00216588 0.00217649 0.00218711 0.00219772 0.00220841 0.0022191 0.00222979 0.00224048
0.00225117 0.00226195 0.00227272 0.00228349 0.00229426 0.00230504 0.00231589 0.00232674 0.0023376 0.00234845
0.0023593 0.00237024 0.00238117 0.00239211 0.00240304 0.00241398 0.00242499 0.00243601 0.00244703 0.00245805
0.00246906 0.00248017 0.00249127 0.00250237 0.00251347 0.00252457 0.00253576 0.00254694 0.00255813 0.00256931
0.0025805 0.00259177 0.00260304 0.00261431 0.00262558 0.00263685 0.00264821 0.00265957 0.00267092 0.00268228
0.00269363 0.00270508 0.00271652 0.00272797 0.00273941 0.00275085 0.00276238 0.00277392 0.00278545 0.00279698
0.00280851 0.00282013 0.00283175 0.00284337 0.00285499 0.00286661 0.00287832 0.00289002 0.00290173 0.00291344
0.00292515 0.00293695 0.00294875 0.00296055 0.00297234 0.00298414 0.00299603 0.00300792 0.00301981 0.0030317
0.00304359 0.00305557 0.00306755 0.00307953 0.00309151 0.00310349 0.00311556 0.00312763 0.00313971 0.00315178
0.00316385 0.00317602 0.00318818 0.00320035 0.00321251 0.00322468 0.00323694 0.00324919 0.00326145 0.00327371
0.00328597 0.00329832 0.00331068 0.00332303 0.00333538 0.00334773 0.00336018 0.00337263 0.00338508 0.00339753
0.00340997 0.00342252 0.00343506 0.0034476 0.00346015 0.00347269 0.00348533 0.00349797 0.00351061 0.00352325
0.00353589 0.00354863 0.00356136 0.0035741 0.00358684 0.00359957 0.00361241 0.00362524 0.00363808 0.00365091
0.00366375 0.00367668 0.00368962 0.00370255 0.00371548 0.00372842 0.00373702 0.00374563 0.00375424 0.00376285
0.00377141 0.00377585 0.00378028 0.00378471 0.00378915 0.00379358 0.00380671 0.00381984 0.00383298 0.00384611
0.00385924 0.00387248 0.00388571 0.00389894 0.00391218 0.00392541 0.00393875 0.00395208 0.00396542 0.00397875
0.00399209 0.00400553 0.00401896 0.0040324 0.00404584 0.00405928 0.00407282 0.00408636 0.0040999 0.00411344
0.00412698 0.00414063 0.00415427 0.00416792 0.00418156 0.00419521 0.00420896 0.00422271 0.00423646 0.00425021
0.00426396 0.00427781 0.00429167 0.00430553 0.00431938 0.00433324 0.0043472 0.00436116 0.00437512 0.00438909
0.00440305 0.00441712 0.00443119 0.00444526 0.00445933 0.0044734 0.00448758 0.00450176 0.00451594 0.00453011
0.00454429 0.00455858 0.00457287 0.00458716 0.00460144 0.00461573 0.00463013 0.00464453 0.00465893 0.00467332
0.00468772 0.00470223 0.00471674 0.00473125 0.00474576 0.00476027 0.00477489 0.00478952 0.00480414 0.00481876
0.00483338 0.00484812 0.00486285 0.00487759 0.00489232 0.00490706 0.00492191 0.00493676 0.00495161 0.00496646
0.00498131 0.00499627 0.00501124 0.0050262 0.00504117 0.00505613 0.00507122 0.0050863 0.00510138 0.00511646
0.00513154 0.00514675 0.00516195 0.00517715 0.00519235 0.00520755 0.00522287 0.00523819 0.00525351 0.00526883
0.00528415 0.00529959 0.00531503 0.00533047 0.00534591 0.00536135 0.00537691 0.00539247 0.00540803 0.0054236
0.00543916 0.00545484 0.00547053 0.00548621 0.0055019 0.00551758 0.0055334 0.00554921 0.00556502 0.00558083
0.00559664 0.00561257 0.00562851 0.00564445 0.00566038 0.00567632 0.00569239 0.00570845 0.00572451 0.00574058
0.00575664 0.00577284 0.00578903 0.00580522 0.00582142 0.00583762 0.00583912 0.00584063 0.00584213 0.00584364
0.00584514 0.00585996 0.00587478 0.0058896 0.00590442 0.00591924 0.0059357 0.00595216 0.00596862 0.00598508
0.00600154 0.00601814 0.00603473 0.00605133 0.00606792 0.00608452 0.00610126 0.00611799 0.00613472 0.00615145
0.00616819 0.00618507 0.00620194 0.00621881 0.00623568 0.00625255 0.00626958 0.0062866 0.00630361 0.00632062
0.00633764 0.00635482 0.00637198 0.00638913 0.00640629 0.00642346 0.00644079 0.0064581 0.0064754 0.0064927
0.00651002 0.00652751 0.00654497 0.00656242 0.00657987 0.00659734 0.00661499 0.00663261 0.00665021 0.00666781
0.00668544 0.00670324 0.00672103 0.00673878 0.00675655 0.00677434 0.00679231 0.00681025 0.00682817 0.00684609
0.00686405 0.00688218 0.00690029 0.00691838 0.00693647 0.00695459 0.00697289 0.00699117 0.00700942 0.00702769
0.00704598 0.00706446 0.0070829 0.00710134 0.00711978 0.00713825 0.0071569 0.00717552 0.00719414 0.00721277
0.00723141 0.00725024 0.00726904 0.00728785 0.00730666 0.00732549 0.0073445 0.00736349 0.00738248 0.00740149
0.00742051 0.0074397 0.00745889 0.00747808 0.00749728 0.00751649 0.00753588 0.00755526 0.00757465 0.00759406
0.00761347 0.00762313 0.00763278 0.00764244 0.00765211 0.00766156 0.00767153 0.00768151 0.0076915 0.00770148
0.00771147 0.00773126 0.00775105 0.00777086 0.00779068 0.00781051 0.00783052 0.00785053 0.00787055 0.00789058
0.00791062 0.00793087 0.00795109 0.00797133 0.00799158 0.00801185 0.00803233 0.00805278 0.00807325 0.00809372
0.00811422 0.00813494 0.00815564 0.00817633 0.00819703 0.00821778 0.00823874 0.00825968 0.0082806 0.00830154
0.00832253 0.00834374 0.00836493 0.0083861 0.00840729 0.00842854 0.00845 0.00847145 0.00849288 0.00851432
0.00853582 0.00855755 0.00857926 0.00860095 0.00862266 0.00864442 0.00866642 0.00868839 0.00871036 0.00873235
0.00875439 0.00877665 0.0087989 0.00882115 0.00884343 0.00886574 0.00888828 0.00891081 0.00893336 0.00895594
0.00897854 0.00900136 0.00902419 0.00904704 0.00906991 0.00909282 0.00910005 0.00910728 0.00911452 0.00912175
0.00912888 0.0091448 0.00916074 0.00917669 0.00919266 0.00920864 0.00923206 0.00925551 0.00927898 0.00930248
0.00932601 0.00934976 0.00937353 0.00939733 0.00942115 0.009445 0.0094691 0.0094932 0.00951732 0.00954148
0.00956567 0.00959011 0.00961456 0.00963902 0.00966351 0.00968806 0.00971285 0.00973765 0.00976247 0.00978731
0.00981222 0.00983737 0.00986254 0.00988771 0.00991292 0.0099382 0.00996372 0.00998926 0.0100148 0.0100404