/*--------------------------------*- C++ -*----------------------------------*\
  =========                 |
  \\      /  F ield         | OpenFOAM: The Open Source CFD Toolbox
   \\    /   O peration     | Website:  https://openfoam.org
    \\  /    A nd           | Version:  11
     \\/     M anipulation  |
\*---------------------------------------------------------------------------*/
FoamFile
{
    format      ascii;
    class       volScalarField;
    location    "0.9";
    object      gradTy;
}
// * * * * * * * * * * * * * * * * * * * * * * * * * * * * * * * * * * * * * //

dimensions      [0 -1 0 1 0 0 0];

internalField   nonuniform List<scalar> 
5712
(
13269.8
7658.95
21315.3
14087.9
23356.8
17390.7
36190
45545.2
47800.6
59197
31139.8
27253.2
19745.6
15800.6
9987.39
6777.38
21660.3
21607
18905.8
21907.2
29189.8
25430.5
34318.3
27108.5
9199.69
6472.01
5230.31
3937.58
10815
8766.95
6695.25
5540
20803.3
21088.7
20709
16662.5
15554.8
12644.6
12531.1
14405
20109
20195.6
43149.8
44848.4
29860.7
31015.1
17978.1
15169.4
19046.4
13463.1
8876.42
9267.82
7714.5
11880.7
4066.81
5213.86
10492.4
15671
6352.43
7751.89
11324.1
20902.5
7972.67
13811.4
2983.66
8117.86
2493.55
6028.99
18760.7
23391.6
19889.1
23612.5
22661.3
22671.6
23609.1
22701.9
17343.3
23823.9
17362.7
23301.3
19833.9
23643.7
19967.7
23699.4
24129.7
22609.8
24219.6
22497.4
16191.2
24057.9
15733.8
24230.9
20924.1
25715.5
26412.9
38599.2
22212
30247.6
26209
42599.9
19832.3
22400.4
26498
36812.4
19663.1
20886.8
26814.8
36459.8
7307.44
9883.61
18919.7
34360.5
8809.88
10280.5
23793.9
38127.4
10564.5
10751.8
29364.1
41033.9
26261.7
26753.6
23556.9
24043.5
37773.5
26567
26186.3
23825.4
21595.3
44081.3
24379
25022.4
23442.1
25084.9
49085.5
2650.16
3226.17
5904.21
14637.5
3682.04
4300.59
7816.27
15743.4
5262.17
4484.58
10223.6
17158.4
25448.5
23689.2
23817.8
21947.1
21849.7
18567.4
17163.4
14485.4
13003.9
19279.8
23575.9
21590
24717
23166.8
22559
20232.9
19758.9
17216.2
13650.3
18904.9
25037.8
27783.7
25137.3
28743.9
23367.5
23650.7
23016.7
24172.4
23781.4
23990
23541.9
23184.9
25017.7
28979.7
24994.1
29060.8
22459.1
24654.5
22357.4
24696.9
23873.4
23932.7
23933
23975.1
20798.5
19687.7
13669.1
15563.1
20732.6
19271.8
13526.4
15920.8
21029.8
19563
13941.3
15496.3
21121.8
19356.7
14373.6
15462.5
1972.98
1163.22
721.307
1048.89
596.469
532.951
2804.57
1382.75
927.963
1977.91
1408.24
1081.83
2981.55
2005.46
1810.87
3385.33
2434.95
2017.84
20618.9
16545
14014.3
19632.3
16288.5
14045
14530.2
12023.7
10619.9
10596.9
7964.9
6784.42
5239.35
3279.09
2518.26
19109.9
15631.8
13198.6
20496
16459.4
13772.3
15907.2
11845.2
9657.24
10861
7398.06
5952.26
5513.25
3208.18
2308.89
28734
27547.4
31812
27959.3
32936.7
28041.8
40518.7
30044.4
21568.7
21161
21467
19355.7
24318.2
22180.6
24143.1
20045.1
23854.6
23290.9
21912.7
23020.6
28142.8
25755.7
29824.9
30513.3
33074.4
34485.1
24392.3
25542.4
21872.9
21355
26028.8
26863.6
15974.3
8448.94
15105.2
9362.43
16301.8
8519.82
15143.3
9296.91
16175
8545.12
15229.7
9705.71
14924.5
10160.9
15160.8
10037.7
21432.1
17743.5
21696.6
17951.9
24141.1
21342.1
24843.6
21409.9
20830.1
14495.3
21355.8
14119.9
22455.7
18001.6
22870.3
17831.7
25817.3
21408.6
25992.5
21200.4
20856.9
14632.2
20889
14546.7
13178.5
8522.06
11112.4
7148.62
12065.1
7581.05
10553.8
6658.75
13623.9
9070.18
11348.8
7371.5
13679.6
9365.67
11313.3
7406.6
2442.76
1246.37
4485.13
2530.89
2580.48
1490.65
4750.33
2951.3
3132.6
2203.97
5223.04
3749.4
12243.5
19728.5
8680.8
8251.33
5959.08
18956.5
12649.6
7125.18
7149.45
4870.12
20224.5
15385.2
11866.7
9015.11
5797.73
641.715
409.633
1551.26
1143.01
856.845
509.94
2016.94
1539.29
1443.25
943.6
2774.05
2153.57
18643.3
16890.3
12014.6
10611.5
7425.42
6765.78
6142.76
4972.71
4061.84
3144.04
17859.3
15228.2
13236.9
10670.9
9880.78
7877.62
7309.71
5807.31
4969.77
4338.05
13974.7
10311.2
14287.4
10335.6
17560.5
13744.9
17810.4
13938.6
11406.2
8319.27
10906.9
8134.44
14431.3
10327
14370
10334.8
17891.4
14409.1
17775.5
14424.3
11707.4
8304.02
11688.1
8405.16
8564.32
6410.66
5842.05
5385.56
8149.61
6128.14
5563.25
5014.6
8971.31
6593.36
6004.11
5690.55
9160.7
6590.33
6226.8
5762.15
862.882
704.703
552.844
3696.63
1836.4
1420.55
848.62
783.346
658.536
4115.31
2220.24
1779.14
1234.54
1277.83
1231.94
4734.24
2866.1
2401.08
14292.5
11855.8
10376.1
9006.46
7681.17
6943.57
6039.16
5229.44
4837.75
4691.91
4011.87
3632.51
5623.42
3649.51
3076.49
12506.7
10057.6
8577.85
8495.97
6814.84
5910.49
6419.2
5122.31
4461.9
5572.25
4316.91
3658.67
7046.57
4171.01
3436.84
4358.36
2350.23
1298.46
716.379
4889.53
2549.81
1370.45
740.542
4383.06
2352.94
1302.73
719.63
4990.07
2605.49
1410.08
763.138
4384.68
2339.5
1334.62
744.045
5097.74
2643.26
1475.46
803.571
5470.53
2785.71
1466.1
784.168
5594.23
2872.72
1483.95
791.18
4652.76
2491.42
1404.51
769.993
3909.18
2223.95
1302.15
728.813
4118.62
2271.83
1327.51
742.37
3632.44
2106.19
1255.61
708.587
5004.02
2651.72
1448.05
782.573
4071.26
2306.42
1327.94
741.725
5185.36
2752.99
1480.46
800.013
4136.82
2361.45
1353.2
758.401
3324.77
2025.63
1195.04
683.457
2307.93
1655.98
1069.94
637.625
3342.36
2022.54
1198.34
684.945
2403.13
1682.21
1078.72
641.946
3436.81
2033.55
1221.45
699.918
2677.07
1761.18
1109.46
657.179
3427.35
2003.03
1216.05
718.5
2922.25
1822.38
1154.01
669.25
3261.17
1965.45
1201.88
698.268
1418.69
1373.71
870.572
260.569
574.237
1226.44
796.983
257.56
1586.74
1430.6
894.207
274.35
751.773
1287.05
816.688
263.695
1916.33
1534.15
925.796
275.095
1072.77
1392.91
844.196
267.805
2342.18
1663.73
982.072
298.89
1451.67
1517.6
886.727
280.691
2667.99
1790.54
1052.96
342.464
1643.07
1624.19
927.503
292.383
2905.27
1939.11
1083.48
332.587
1632.33
1761.69
1003.95
313.378
2812.54
1875.64
1063.24
331.251
1550.29
1700.34
965.575
301.547
2950.74
1980.21
1087.42
314.037
1643.4
1808.24
1023.45
315.141
3008.44
2017.12
1108.29
318.376
1723.46
1847.9
1045.35
321.163
425.142
243.493
129.298
61.0563
17.7582
424.09
243.517
129.5
61.1714
17.7916
430.994
246.283
130.363
61.4501
17.8587
433.427
247.046
130.872
61.6922
17.9261
444.426
250.067
131.683
61.9318
17.9816
446.223
250.902
132.395
62.2796
18.0791
449.286
254.909
134.303
63.0647
18.2883
458.204
260.112
136.787
64.1071
18.5693
457.392
254.465
133.494
62.6431
18.1681
481.596
259.054
134.696
63.0199
18.2589
458.981
253.158
132.647
62.2649
18.0649
480.671
257.229
133.775
62.6368
18.1566
460.305
257.902
135.171
63.3403
18.3547
490.238
262.35
136.188
63.6368
18.4243
471.125
263.016
137.497
64.306
18.6144
501.609
266.924
138.182
64.4606
18.646
432.155
244.168
129.193
60.9589
17.7282
447.312
245.16
129.163
60.9013
17.7098
437.972
246.414
130.014
61.2556
17.803
452.309
246.926
129.808
61.1336
17.7683
450.286
250.111
131.269
61.7071
17.9175
463.292
250.147
130.93
61.54
17.8713
467.17
254.013
132.492
62.1394
18.0268
476.198
253.544
132.159
61.9969
17.9886
482.305
256.005
133.169
62.3898
18.0911
14687.9
22965
15090.8
23000.6
15593.2
22903.3
15658.1
22518.3
14479.9
20983.3
12728.3
14476.5
12966.4
15603.2
12686.5
14146.7
12873.9
14241.3
13258.7
2292.98
496.938
113.282
20.3456
14796.6
4251.79
1045.4
240.818
43.2203
13213.6
2249.56
485.04
110.325
19.7812
14708.1
4186.37
1027.53
235.943
42.0325
13012.5
2193.01
470.526
106.861
19.1555
14452.1
4088.16
1001.29
229.664
40.9257
12503.7
2069.46
441.78
100.42
18.0317
13883.3
3907.18
956.738
219.72
39.1964
11475.9
1854.61
396.477
90.7188
16.3698
12783.5
3614.86
890.598
205.672
36.8214
9680.16
1631.65
361.998
84.6461
15.4583
9915.99
2965.57
754.775
178.259
32.372
10247.8
1697.96
371.62
86.1632
15.656
10802.9
3218.78
809.882
189.229
34.105
9429.79
1605.49
358.106
84.0333
15.3779
9560.8
2841.64
724.671
171.98
31.3689
9350.81
1585.66
353.487
83.0224
15.188
9507.88
2805.32
713.822
169.903
30.9642
36967.9
53804.3
52292.6
35618.7
20247.3
21439.9
30004.2
31663.6
23996.9
27243.7
38799.3
53814.1
49343.2
66199.9
31905.2
36744.9
24708.9
26638.1
13277
14653.5
4535.01
2775.89
376.089
239.424
268.971
222.127
313.46
4099.66
3668.81
2077.56
2727.69
2366.65
936.3
1441.12
1160.1
694.754
821.903
623.689
3793.6
1699.13
837.849
722.423
1057.31
880.533
618.443
533.872
437.946
365.74
592.49
522.654
4135.07
2251.89
2652.33
1466.32
1091.48
1747.47
620.477
400.832
707.895
8768.93
7987.05
7295.17
7297.56
10790.7
5833.41
6054.53
5943.84
6038.53
6594.03
959.669
1303.77
1520.8
1643.46
1699.58
619.499
859.637
1021.51
1117.36
1161.39
695.949
965.177
1145.22
1250.19
1297.51
576.667
804.167
959.505
1052.07
1094.51
806.53
1109.08
1306.35
1419.43
1470.31
8206.42
7709.79
6854.75
6508.52
9300.74
7337.82
6761.77
5891.9
5461.82
5888.78
4543.4
4919.77
4817.37
4720.27
4842.56
5570.56
5331.91
4703.76
4287.04
4183.34
4834.15
4684.61
4148.68
3731.93
3557.95
2238.13
2753.72
2947.44
3004.72
3029.25
3269.8
3725.89
3758.56
3698.04
3690.02
2678.15
3127.46
3202.03
3154.7
3117.4
1707.28
2187.02
2416.38
2509.23
2543.35
1980.47
2463.53
2653.95
2706.01
2716.76
1546.4
2006.35
2238.34
2336.28
2370.78
7734.62
7496.73
6850.42
6677.31
9618.84
3839.89
4377.53
4472.01
4511.82
4683.04
2035.35
2566.01
2805.68
2906.57
2957.27
1777.02
2284.25
2541.53
2665.69
2727.63
2515.25
3083.31
3312.73
3416.89
3502.33
2140.93
2708.25
2981.7
3118.89
3201.03
1540.62
2020.27
2289.89
2434.56
2506.5
1342.92
1784.15
2039.53
2174.02
2234.93
1112.84
1499.66
1731.68
1852.87
1903.66
936.249
1276.74
1491.3
1609.68
1661.41
1477.41
1935.36
2181.62
2299
2348.18
1314.54
1745.41
1992.46
2119.48
2175.18
8184.5
7696.1
7081.11
7049.16
10322.3
4882.05
5293.62
5323.99
5439.82
5845.2
5860.26
6265.46
6065.58
6094.41
6950.14
3399.17
4034.26
4268.66
4415.5
4599.49
2609.57
3226.62
3500.69
3646.83
3760.11
3955.62
4532.39
4664.63
4750.17
4972.51
1545.66
2025.57
2292.35
2432.29
2500.17
1020.96
1382.31
1605.87
1728.85
1783.65
1746.41
2255.63
2521.78
2655.89
2723.9
21261.5
14278.8
21778.5
15758.9
27762.3
40970.3
29248.2
40955.8
22203.1
23153.7
19230.4
22620.6
24570.4
22925.4
32231.5
25689
16850.9
16451
8255.11
7329.48
18235.6
17279
9413.24
7931.39
22822
24402.8
22940.2
20553
23903.2
15678.2
12560
14475.3
20390.5
20297.4
43256.8
44998.5
29417.1
30941.9
19060.3
15432.1
20328.8
13728.8
9953.75
9551.13
18008.2
20404.7
7480.59
8340.42
19587.8
22993.2
9236.25
10423.2
18290.5
26585.3
10548.1
16797.1
3604.19
9177.24
2625.39
6244.17
20266.8
22908.2
20254.9
23377.4
21293.3
21344.9
22734.2
22004.8
19149.6
24146.8
21831.5
23820.2
19916.1
23532
19975.3
23664.1
23722.7
22273.4
24108.8
22396
16855.9
24223.6
15882.9
24278.3
22485.6
27632.3
27136.9
39429.3
24678.8
33228.3
27403.4
43911.1
20605.8
23384.7
26874.2
37273.8
19880.6
21174.3
26926.1
36607.5
24858
26700.8
32136.3
48542.8
24693.7
25027.4
34236.3
48930.7
23845.2
23198.2
36519.6
47976.2
20407.7
20383.7
22920.4
25747.2
41128.6
19418.3
18845.1
24233.4
23176.9
47581.2
20261.4
22039.5
22965.3
26496.1
50804.6
13325.6
11800.1
13322.8
18092.7
14656.9
13018.4
13737.1
18448.3
16277.1
13615.6
14257.9
18635.4
18367.9
16924.4
17904.8
16720.1
21996.2
19681.8
18806
16402.4
14812.8
19265.6
19552.6
18564.1
21601.1
21017.9
21749.1
19875.7
20737.2
18063
14467.6
18418
23739.9
26349.6
24573.4
28033
21561.8
22024
22205.9
23395.7
23673.8
23738.5
23247.8
22737.1
24765.8
28666
24922.1
28972.8
22097.9
24293.4
22253.3
24594.2
23824.8
23824.4
23916.8
23945
21035.9
19764.4
13949.6
15690.8
21168.4
19438.8
14053.8
16059.1
21146.7
19607.2
14082.4
15580.1
21156.8
19371.3
14419.6
15491.2
10531.6
10730.5
4759.79
4291.15
11762
11265.4
5327.62
5017.98
11381.6
10377.6
5999.69
5690.69
15924
14876.9
16271.3
15866.2
17063.7
15978.6
13491.2
11585.1
7173.98
5684.56
17869.2
16435.2
20127.5
18560.8
16870.5
14893.5
12734.9
10340.2
6512.13
4544.16
23269.8
21625.9
29568.8
25119.7
26823.2
23316.1
38074
27786.4
20803.2
16435.8
23194.9
17610.1
20606.4
16762.6
23304.1
17940.9
21667.7
18605
19315.2
17455.5
20971.4
22901.3
28481.5
30124.4
32122.7
34238.5
23125.5
25132.4
20667.7
21016.1
24397.1
26319.6
12860
9106.63
13525.3
9406.03
13191
9054.33
13801.9
9307.04
13171.3
8952.18
13904
9590.09
14111
9991.78
14877
9969.31
17415.4
16428
19737.5
17135.1
20639
19402.2
23064
20358.1
18825.3
14072.8
17402.5
13661.3
21502.5
17567.7
22591.4
17699.5
25004.7
20892.1
25767
21047.1
19838.2
14371.2
20581.1
14463.5
12592
8674.86
11107
7350.4
11726.7
8263.32
10849.1
7188.16
13215.7
9063.9
11290.2
7444.05
13543.7
9349.82
11289.5
7427.12
11962.4
11513
8389.46
7574.9
12114.1
11667.9
8266.92
7521.78
12080.3
11268.1
8086.85
7483.49
14825.1
18201.8
15078.7
10791.6
7808.85
16703
15066.8
16066.6
10601.3
7460.75
18546.9
15683.2
13271.4
10682.2
7015.86
11137.3
10935.3
7167.53
7152.24
11144.1
10801.2
7147.44
7110.71
10529
9984.26
6952.43
6630.71
16079.4
14495.3
13868.1
12525
13575.1
12961.1
10110.4
9796.1
6824.02
6300.98
16312.5
14141.6
13901.6
11736
11810.2
10240.5
9546.94
8534.05
6383.73
6059.87
13732
10668.5
13973.1
10374.4
16476.9
13171.4
17161.9
13582.4
11427.3
8638.99
11343.6
9080.68
14226.1
10301.7
14303.6
10319.9
17565.7
14214.8
17678.2
14365.5
11645.2
8396.17
11657.8
8419.72
8830.49
6874.58
6143.05
5824.27
8940.23
7274.32
6246.35
6006.63
9039.84
6756.96
6123.86
5890.89
9173.25
6630.05
6262.06
5818.44
11765.3
11456
14090.3
12092.8
11530.2
11231.6
13559.1
11580.8
10301.3
10298.2
12518
10746.9
13309.4
12336.8
11392.2
10669.1
12194.6
11907.4
10114.3
9592.3
11491.9
9677.63
12319.8
11111.2
10159.2
9419.96
9380.23
9071.38
9043.23
8414.74
10924.8
8578.65
5308.82
2912.66
1580.51
853.963
5515.76
3006.73
1621.21
867.378
5240.02
2872.82
1560.13
844.059
5495.46
2993.53
1626.07
873.833
5115.22
2794.61
1564.17
855.966
5478.76
2951.89
1656.69
899.087
5666.26
2972.02
1581.25
846.404
5654.69
2935.89
1522.57
812.508
4997.3
2739.1
1551.93
850.456
4153.69
2404.08
1410
789.495
4729.04
2644.4
1529.98
846.786
4067.04
2394.22
1407.55
786.382
5174.32
2793.45
1537.22
832.527
4194.19
2405.23
1392.68
780.745
5234.75
2799.2
1510.36
817.114
4174.03
2393.04
1374.8
771.637
4906.82
2746.4
1523.15
836.626
4315.69
2516.35
1445.1
805.673
4809.79
2703.13
1506.6
827.841
4254.84
2492.75
1433.43
801.379
4682.07
2635.17
1499.65
830.042
4223.53
2464.9
1424.42
798.616
4373.83
2503.74
1455.33
833.215
4113.52
2414.32
1423.2
787.243
3952.52
2371.84
1398.69
790.802
3550.86
2294.93
1229.45
346.255
2484.88
2160.59
1168.65
354.613
3568.6
2295.2
1235.25
358.39
2556.05
2162.1
1169.53
356.653
3610.97
2286.08
1224.71
346.754
2660.2
2155.18
1156.72
350.151
3573.79
2261.54
1239.13
363.715
2642.55
2132.17
1151.61
352.151
3405.2
2211.21
1256.21
401.25
2339.55
2075.66
1138.07
351.555
3111.72
2103.2
1188.6
366.766
1787.67
1940.69
1106.29
345.226
3210.68
2147.06
1215.62
377.237
1893.12
1996.91
1117.94
346.413
3048.19
2067.58
1148.26
334.094
1705.57
1901.25
1080.71
333.505
3035.9
2044.41
1127.96
324.97
1738.27
1876.17
1063.43
327.049
498.002
278.696
145.162
67.5997
19.5159
490.482
276.755
144.686
67.4695
19.4864
497.711
278.237
144.773
67.4002
19.4579
491.514
275.924
144.076
67.1745
19.4024
504.83
278.149
144.306
67.1441
19.383
495.163
274.734
143.282
66.8038
19.2981
482.292
271.298
141.846
66.2116
19.1377
470.226
266.245
139.632
65.2986
18.8913
501.497
275.919
143.206
66.6687
19.2523
522.258
278.01
143.201
66.5385
19.2064
515.401
278.805
144.1
66.9892
19.3352
533.572
280.185
143.961
66.8344
19.2853
489.022
272.468
141.841
66.1188
19.1044
516.263
275.059
141.958
66.0365
19.0717
480.97
268.022
139.808
65.273
18.8758
510.472
271.317
140.192
65.2997
18.8728
515.376
281.761
145.759
67.7398
19.5453
544.233
284.646
146.19
67.8301
19.5635
516.677
281.581
145.513
67.6042
19.5051
544.901
284.437
145.997
67.7274
19.5332
522.536
281.53
145.098
67.3775
19.4389
547.833
284.053
145.594
67.5244
19.4747
533.83
281.909
144.726
67.1584
19.3742
552.017
283.149
145.032
67.2658
19.4021
545.216
281.595
144.423
67.0132
19.3331
16211.9
21694.6
16226.1
21620.6
16249.3
21444.4
15758.5
20958.1
14440.5
19629.2
12831.6
14500.8
13092.7
15451.1
12753.4
14193
12896.8
14260
13028.8
2217.59
479.483
109.653
19.7657
14025.6
4070.79
1006.22
232.932
41.9721
12915.8
2171.64
467.908
106.839
19.2302
13901.3
4003.48
988.853
228.304
40.8461
12629.9
2113.29
454.237
103.65
18.6557
13621.5
3907.41
964.365
222.546
39.8347
12095.9
1998.06
428.072
97.7839
17.6262
13106.6
3744.67
924.477
213.612
38.2709
11189.5
1807.67
387.472
88.9683
16.0987
12203.4
3493.96
866.45
201.079
36.1256
9672.67
1626.8
360.397
84.2435
15.3882
9888.31
2948.37
749.639
177.063
32.1721
10166
1679.39
367.273
85.2301
15.5049
10633.5
3162.6
796.66
186.519
33.6812
9441.75
1605.46
357.716
83.899
15.3518
9571.74
2839.82
723.432
171.61
31.2998
9357.23
1586.05
353.438
82.9934
15.1817
9515.08
2805.95
713.695
169.835
30.9496
36601.8
53758.4
51872.7
34429.8
26184
32065
25152
31895.7
30237.1
49883.8
32331.8
51275.9
22.0072
27.8531
41.054
64.438
103.094
164.867
26.6651
33.3266
48.2347
74.2016
115.796
179.589
18.7158
17.1543
24.4218
23.1455
37.4861
37.0879
61.061
63.0295
99.8465
105.482
158.383
163.115
261.942
410.582
637.162
979.2
1401.75
1710.63
274.143
408.605
590.917
817.103
1047.3
1199.06
58.3498
84.227
104.055
117.272
123.832
73.7185
106.098
130.677
146.91
154.914
108.364
155.266
190.36
213.219
224.377
169.504
241.508
294.418
328.292
344.626
269.968
381.848
462.155
512.462
536.368
429.015
600.75
720.147
792.869
826.848
70.5989
101.669
125.302
140.943
148.667
88.0534
126.374
155.207
174.093
183.351
127.04
181.384
221.604
247.539
260.113
194.662
276.161
335.258
372.65
390.545
302.29
425.478
512.591
566.482
591.909
465.862
649.18
774.771
850.415
885.596
49.6768
71.8368
88.9144
100.36
106.064
45.5584
65.9447
81.7031
92.2961
97.5856
64.7116
93.3134
115.156
129.665
136.848
61.3629
88.5639
109.395
123.27
130.151
99.0747
142.259
174.789
196.109
206.561
98.0728
140.939
173.311
194.578
205.019
160.862
229.752
280.756
313.627
329.547
166.121
237.424
290.312
324.448
340.992
261.932
371.53
450.864
500.903
524.771
276.821
392.859
476.938
529.976
555.259
413.165
580.752
698.521
770.792
804.645
425.942
599.588
721.993
797.168
832.328
675.337
932.145
1102.77
1203.02
1249.17
1044.36
1412.39
1641.85
1771.34
1831.25
1588.93
2087.57
2371.33
2526.02
2603.18
2371.45
2990.19
3297.13
3466.07
3575.59
3270.98
3921.25
4185.96
4353.3
4527.13
3902.42
4535.22
4749.34
4911.78
5141.52
705.263
970.225
1144.52
1246.3
1293.13
1039.91
1407.4
1636.96
1766.68
1826.57
1483.36
1967.08
2250.28
2405.76
2480.33
2017.19
2611.52
2933.43
3107.96
3200.67
2541.37
3212.02
3547.48
3732.23
3847.43
2879.09
3586.39
3922.65
4112.56
4245.46
22.2651
28.7058
42.7553
67.4636
108.208
173.134
26.965
34.3005
50.1088
77.3577
120.728
186.758
18.9511
17.3843
25.2187
23.9428
39.1479
38.8214
64.2003
66.5057
105.504
111.93
168.536
175.822
273.951
425.132
651.397
988.02
1403.76
1710.31
283.565
419.383
601.251
824.753
1051.29
1200.17
59.0462
85.263
105.376
118.8
125.469
76.0227
109.531
135.058
151.981
160.35
112.968
162.139
199.152
223.414
235.316
177.711
253.805
310.203
346.645
364.347
283.89
402.824
489.226
544.066
570.4
451.642
635.119
764.832
845.325
883.502
71.4102
102.88
126.85
142.737
150.592
90.6902
130.313
160.251
179.946
189.633
132.123
189.001
231.383
258.911
272.332
203.247
289.081
351.916
392.083
411.464
315.764
445.889
539.07
597.518
625.402
485.575
679.336
814.24
896.984
936.031
50.3111
72.7787
90.1129
101.744
107.545
46.1783
66.8641
82.8717
93.6442
99.028
66.8619
96.5093
119.226
134.37
141.886
63.513
91.7563
113.457
127.96
135.171
103.565
148.947
183.325
205.991
217.153
102.754
147.904
182.193
204.851
216.026
169.363
242.455
297.021
332.501
349.805
175.528
251.47
308.284
345.289
363.353
277.308
394.637
480.609
535.561
562.051
294.353
419.228
510.912
569.587
597.883
440.849
622.557
752.57
833.967
872.715
460.474
651.467
788.755
874.941
915.987
708.56
983.392
1170.31
1283.1
1336.11
1085.52
1477.84
1730.3
1878.08
1948.26
1631.25
2159.03
2472.23
2651.44
2742.92
2402.02
3049.6
3388.26
3585.33
3712.53
3284.26
3955.94
4245.46
4436.24
4626.42
3905.15
4545.87
4769.39
4941.07
5177.64
731.451
1010.91
1198.5
1310.63
1363.17
1070.44
1456.05
1702.89
1846.42
1914.1
1513.63
2017.4
2320.67
2492.78
2576.99
2041.09
2654.09
2995.79
3187.4
3290.41
2555.3
3239.28
3589.52
3787.51
3911.08
2883.43
3595.56
3937.32
4132.26
4268.44
4518.53
2770.72
397.132
255.115
299.76
242.739
339.769
3932.63
3571
2110.25
2713.31
1024.08
1532.9
777.154
906.655
695.448
3699.24
1727.15
904.736
771.955
1103.92
914.768
641.164
570.057
498.938
411.818
655.98
570.296
4088.61
2243.95
2622.59
1472.41
1111.86
1759.91
651.761
434.479
747.413
8751.68
7996.39
7329.07
7360.88
10911.2
5829.59
6065.11
5971.03
6083.34
6654.68
1018.66
1396.35
1644.46
1791.37
1860.92
662.624
925.51
1107.53
1218.63
1270.92
779.497
1090.4
1306
1437.2
1498.55
632.76
888.597
1068.31
1178.94
1231.04
879.048
1220.24
1451.86
1590.95
1655.93
8195.72
8261.5
7859.27
7886.43
11247.8
7606.99
7826.82
7591.53
7636.89
8402.62
4770.04
5489.04
5724.62
5897.24
6186.85
6133.64
6735.43
6691.28
6741.4
6904.82
2511.77
3227.83
3612.12
3818.19
3925.7
3613.96
4397.53
4740.93
4923.2
5051
1950.06
2586.61
2961.83
3167.29
3263.59
2255.39
2953.76
3347.21
3556.51
3655.3
1759.27
2360.37
2726.11
2928.51
3021.01
7678.05
7731.31
7376.21
7450.28
10797.8
3981.03
4706.1
4997.35
5202.89
5482.18
2238.04
2910.7
3287.55
3497.08
3609.14
1924.29
2530.91
2884.65
3085.83
3191.5
2669.2
3367
3728.25
3940.8
4091.02
2247.89
2897.2
3254.24
3460.72
3583.71
1607.84
2132.88
2447.69
2629.43
2722.79
1446.42
1950.56
2265.5
2446.97
2534.09
1280.75
1756.24
2066.17
2246.07
2328.82
1062.15
1467.24
1737.75
1897.88
1972.12
1659.81
2228.85
2578.36
2775.65
2868.9
1449.99
1961.21
2282.91
2467.89
2555.58
8143.34
7743.21
7209.15
7268.64
10722.2
4884.03
5335.73
5412.33
5574.7
6018.92
5862.16
6404.83
6354.12
6524.08
7520.23
3434.87
4124.2
4420.77
4624.94
4848.26
2680.75
3365.27
3712.25
3921.67
4074.36
4036.01
4740.38
5014.59
5225.67
5534.09
1637.28
2177.09
2502.34
2689.45
2784.24
1114.98
1529.05
1800.62
1960.51
2035.51
1863.92
2452.91
2797.35
2994.64
3098.82
4240.38
4134.82
3928.11
3528.94
2761.48
1129.85
21333.8
21586.9
23833.8
24813.9
20456
21341.1
22445.5
21345.7
17993.9
24061.9
18525.4
24451
21177.7
18899.6
31281.7
20183.5
20265.3
22147.6
22823.6
18977.5
19863.1
21147.1
20349.7
17752.3
29079.2
18166.8
28503.8
21272.8
23481.4
33512.9
18755
18685.2
19906.5
20273.9
17689.6
19098.6
19327.5
19143.1
20152.1
25019.1
20885.7
24791.5
22948.6
25911.4
29453.1
17296.8
17252.3
17644
17812.2
16681.1
18334.9
17271.8
17420.4
18319.6
21221.1
18999.9
20406.4
20284.6
22406.7
24457.1
15848.6
15842.6
15955.2
16020.4
15862.2
17622.2
15749.7
16087.9
16840.4
16710
17535.3
15747.5
17947
17774.6
19177.6
15109.3
15160.3
14772.6
14795.9
15071.8
16386.1
14718.6
14962.6
15657.7
13711.6
16091.3
13185.2
16139.8
14735.5
16643.9
22491.8
21412
24244
25739.7
20343.5
20020.5
22198.8
20836.5
19071.9
13333.6
18926
13387.9
16599.2
14834.9
17350
20782.9
19989.4
21953.2
22961.5
19287.9
19172.3
20553.7
19406.6
17082.7
12344
16980.1
12433.4
14621.9
12777.9
15343.6
18419.1
17929.1
19087.1
19612.3
17481
17371
18334.4
17580.3
15414.4
11416.2
15101.4
11191.1
13271.1
10996.1
14255.4
15874.8
15576.9
16570.3
16840
15247
15061.7
16242.2
15616.6
13474.5
10776.9
13283.5
10563.9
11813.7
10353.3
13402.2
14206.9
13997.7
14922.2
15081
13579.2
13397.9
14775.3
14317.3
12343.3
10838.1
12202.6
10726.8
11126.1
10258.6
12967
12985.5
12801.7
13844.2
13961
12512
12576.1
13688.7
13430.5
11666.2
10848.8
11600.9
10812.6
10709.1
10338.7
12956.7
13063.1
7417.18
21305.5
14095
23380.5
17374.6
36221
45559.6
47857.4
59224.1
31196.5
27252.7
19755.4
15831.8
9696.71
6471.14
21662.9
21609.2
18903.3
21907.8
29204
25436.5
34327
27113
9012.31
6336.82
5054.13
3817.13
10782
8755.32
6692.38
5555.9
20796.9
21082.4
20706.8
16662.5
15549.4
12648
12531.9
14406.6
20110.6
20197.3
43157.4
44853.8
29864.3
31017.6
17979
15171.2
19048
13464.6
8877.64
9269.09
7575.21
11702.1
3958.16
5089.3
10495.1
15687
6370.18
7773.25
11325.8
20910.6
7980.29
13821.4
2985.33
8121.72
2494.12
6030.46
18761.6
23392.6
19890.4
23613.5
22664.2
22673.1
23611.5
22703.1
17345.4
23825.2
17362.6
23302.3
19835.1
23644.7
19968.8
23700.3
24131.5
22610.6
24220.7
22497.9
16192.6
24059.2
15735
24232.2
20926.4
25720.3
26415
38602.4
22213.8
30252.7
26211.1
42603.7
19834.5
22403.8
26500
36815.2
19665.2
20889.7
26816.8
36462.6
7201.38
9781.11
18693.2
34119
8816.76
10284.8
23814.4
38153.2
10567.7
10754.5
29373.3
41043.7
26261.4
26754.2
23556.2
24044.9
37778.9
26567.3
26185.8
23824
21596
44087.1
24379.8
25022.8
23442.6
25086.9
49090.1
2603.1
3191.84
5790.86
14511.3
3687.42
4306.59
7832.73
15757.9
5264.73
4485.89
10228.8
17161.5
25448.4
23689
23817.3
21946.7
21848.6
18566.8
17164.4
14486.3
13006.5
19281.6
23576
21589.9
24717
23166.8
22559.4
20233.2
19760.3
17217.3
13651.9
18906.1
25038.3
27783.8
25137.8
28744
23367.9
23650.6
23017
24172.3
23782.2
23990.6
23542.7
23185.4
25018.2
28979.8
24994.5
29060.9
22459.3
24654.4
22357.5
24696.7
23874.2
23933.2
23933.8
23975.6
20799.6
19688.5
13670.1
15563.9
20733.8
19272.8
13527.6
15921.8
21030.8
19563.8
13942.2
15497.1
21122.8
19357.4
14374.4
15463.3
1949.29
1146.3
708.643
1046.44
591.757
527.226
2815.08
1387.88
929.502
1986.64
1413.1
1083.82
2981.96
2006.07
1811.56
3386.15
2436.28
2019.08
20618.8
16545.2
14014.7
19632.3
16289.1
14045.7
14530.5
12024.5
10620.8
10597.5
7965.74
6785.36
5239.95
3279.81
2518.94
19109.8
15631.9
13198.9
20496.1
16459.8
13773
15907.6
11845.8
9657.94
10861.6
7398.65
5952.92
5513.74
3208.62
2309.26
28738.6
27548.6
31815.2
27960.5
32952.1
28047.7
40532.2
30049.6
21378.7
21102.1
21239.7
19283.5
24283.7
22149.6
24105.1
20015.1
23848.5
23285.6
21912.5
23018.4
28124.1
25739.1
29825.8
30513.5
33078.2
34487.2
24390.1
25541.2
21871.8
21353.8
26020.5
26859.6
15976.7
8453.98
15100.7
9369.29
16281.7
8514.46
15126.2
9292.62
16161.7
8540.05
15218.1
9700.48
14917.9
10156.9
15157.3
10035.2
21430
17742.9
21695.3
17951.4
24143.1
21342.9
24845.4
21410.4
20824.1
14493.8
21348.1
14118.1
22455
18001.1
22869.6
17831.1
25818.6
21408.8
25993
21200.4
20853.3
14631
20886.7
14545.6
13175
8519.31
11110.5
7147.15
12061.3
7578.33
10551.6
6657.14
13621.3
9067.85
11347.2
7370.24
13677.7
9363.89
11312
7405.54
2431.81
1233.44
4472.4
2515.74
2580.61
1491.4
4749.93
2951.89
3131.5
2203.64
5221.25
3748.62
12244.1
19729.7
8680.26
8249.52
5957.38
18957.3
12649.8
7124.96
7148.08
4868.96
20225.2
15385.1
11865.4
9013.29
5796.33
629.795
397.29
1536.16
1132.86
857.758
509.745
2017.15
1538.93
1443.33
943.906
2773.79
2153.64
18643.5
16890.1
12014.3
10611
7424.93
6765.2
6141.89
4972.23
4061.14
3143.73
17859.5
15228.1
13236.6
10670.5
9879.95
7877.03
7308.64
5806.69
4968.83
4337.41
13974.3
10310.7
14287
10335.2
17560.7
13744.8
17810.5
13938.5
11405.3
8318.61
10905.9
8133.74
14430.9
10326.6
14369.5
10334.4
17891.4
14408.9
17775.3
14424
11706.7
8303.43
11687.3
8404.58
8563.26
6409.96
5841.13
5384.78
8148.43
6127.41
5562.24
5013.82
8970.38
6592.7
6003.31
5689.81
9159.86
6589.74
6226.07
5761.49
847.029
692.475
543.479
3673.29
1818.14
1404.03
847.194
782.744
658.535
4113.6
2220.16
1779.24
1234.8
1278
1232.05
4734
2866.2
2401.23
14292.3
11855.7
10376.1
9006.04
7680.87
6943.37
6038.59
5229.03
4837.45
4691.55
4011.6
3632.28
5622.84
3649.34
3076.43
12506.5
10057.5
8577.86
8495.62
6814.59
5910.32
6418.75
5122.01
4461.69
5571.73
4316.6
3658.46
7045.59
4170.67
3436.65
4358.22
2349.69
1297.89
715.942
4888.25
2548.17
1369.5
739.981
4381.82
2352.48
1302.51
719.539
4989.19
2605.16
1409.91
763.058
4383.27
2339
1334.38
743.935
5096.26
2642.76
1475.23
803.457
5469.05
2785.18
1465.86
784.053
5593.07
2872.24
1483.73
791.068
4651.57
2490.9
1404.26
769.869
3908.37
2223.51
1301.91
728.684
4117.5
2271.33
1327.26
742.247
3631.6
2105.74
1255.37
708.458
5002.89
2651.21
1447.8
782.447
4070.51
2306
1327.71
741.596
5184.4
2752.54
1480.23
799.893
4136.17
2361.07
1352.98
758.279
3323.22
2025.34
1194.81
683.15
2305.05
1655.17
1069.75
637.439
3341.58
2022.16
1198.14
684.858
2402.63
1681.94
1078.58
641.879
3435.89
2033.13
1221.23
699.814
2676.46
1760.85
1109.27
657.085
3426.48
2002.6
1215.81
718.372
2921.55
1822
1153.8
669.137
3260.4
1965.03
1201.64
698.133
1416.84
1372.98
870.569
260.641
573.096
1225.18
796.549
257.428
1586.37
1430.42
894.066
274.297
751.426
1286.97
816.624
263.676
1915.94
1533.89
925.643
275.044
1072.55
1392.69
844.074
267.766
2341.68
1663.4
981.891
298.835
1451.4
1517.31
886.568
280.641
2667.43
1790.16
1052.75
342.4
1642.77
1623.86
927.321
292.327
2904.75
1938.73
1083.28
332.527
1632.07
1761.35
1003.76
313.317
2811.98
1875.25
1063.03
331.191
1550.02
1699.99
965.381
301.488
2950.27
1979.86
1087.23
313.984
1643.19
1807.92
1023.26
315.084
3008.03
2016.81
1108.11
318.327
1723.27
1847.61
1045.18
321.11
424.785
243.337
129.241
61.0357
17.7531
423.675
243.322
129.424
61.1436
17.7846
430.968
246.26
130.35
61.4444
17.8571
433.392
247.021
130.859
61.6863
17.9245
444.378
250.038
131.668
61.925
17.9797
446.171
250.872
132.38
62.2726
18.0771
449.225
254.876
134.286
63.0569
18.2861
458.142
260.077
136.769
64.0991
18.567
457.325
254.432
133.477
62.6354
18.1659
481.513
259.016
134.678
63.0117
18.2566
458.917
253.125
132.631
62.2576
18.0629
480.59
257.192
133.757
62.629
18.1543
460.234
257.865
135.153
63.3321
18.3524
490.152
262.311
136.169
63.6283
18.4218
471.055
262.979
137.478
64.2977
18.6121
501.526
266.886
138.164
64.4521
18.6436
431.804
244.036
129.146
60.9424
17.724
447.002
245.048
129.124
60.8873
17.7063
437.951
246.392
130.002
61.2503
17.8016
452.295
246.905
129.796
61.1286
17.7669
450.238
250.084
131.255
61.7006
17.9157
463.244
250.12
130.916
61.5338
17.8696
467.103
253.98
132.475
62.1322
18.0247
476.131
253.512
132.143
61.9898
17.9866
482.226
255.97
133.152
62.3822
18.0889
14623.8
22893
15094.4
23003.9
15595.4
22904.8
15659.6
22519.3
14481
20984.2
12729.1
14477.3
12967.3
15604
12687.2
14147.4
12874.6
14242
13250.3
2278.87
493.141
112.384
20.1835
14781.1
4244.38
1043.06
240.226
43.1082
13209.8
2250.55
485.228
110.355
19.7849
14705.8
4185.45
1027.19
235.841
42.0123
13011.6
2193.12
470.544
106.859
19.1541
14451.6
4087.87
1001.17
229.622
40.9164
12503.7
2069.49
441.778
100.416
18.0304
13883.4
3907.12
956.697
219.702
39.1922
11476.3
1854.65
396.482
90.7182
16.3694
12783.8
3614.91
890.596
205.667
36.8198
9680.64
1631.73
362.013
84.6491
15.4587
9916.48
2965.7
754.803
178.264
32.3727
10248.2
1698.03
371.632
86.165
15.6562
10803.4
3218.88
809.9
189.231
34.1049
9430.27
1605.57
358.123