/*--------------------------------*- C++ -*----------------------------------*\
  =========                 |
  \\      /  F ield         | OpenFOAM: The Open Source CFD Toolbox
   \\    /   O peration     | Website:  https://openfoam.org
    \\  /    A nd           | Version:  11
     \\/     M anipulation  |
\*---------------------------------------------------------------------------*/
FoamFile
{
    format      ascii;
    class       volScalarField;
    location    "0.9";
    object      gradTz;
}
// * * * * * * * * * * * * * * * * * * * * * * * * * * * * * * * * * * * * * //

dimensions      [0 -1 0 1 0 0 0];

internalField   nonuniform List<scalar> 
5712
(
8666.11
28367.5
6932.55
29049.9
5132.53
29807.7
7947.66
45171.2
9739.81
61892.9
9762.42
45546.4
9509.42
38065.1
9894.8
34160.8
5972.36
3816.41
16036.4
9641.36
5758.75
3125.66
17181.1
8511.97
6719.11
5068.63
21452.6
15597.3
5087.47
3861.83
21072
15786.7
11985.3
5134.38
10455
4748.65
4974.74
11403.4
39903.1
10644.7
14328.3
4560.49
50588.1
13474.4
13080.8
4156.31
28989
8886.34
14889.5
5016.94
25641.4
8069.83
8718.54
4323.38
11530.2
4600.4
9463.44
5086.08
11181.7
4411.73
11619.6
6700.57
9625.68
4313.02
13655.6
5010.85
4623.13
1644.32
15569.2
11070.7
9328.2
6914.17
16211.9
13367
8687.25
7448.98
9302.08
6538.22
13763.6
9629.5
5910.3
4355.99
2695.78
2207.11
5370.91
4588.84
2427.83
2377.02
5965.85
4017.92
2804.04
1795.47
8646.15
4813.35
6748.24
7965.22
12321.5
8856.1
10175
13937.1
5500.14
2683.21
3833.5
4450.92
2545.22
1100.17
1507.53
1583.21
12284.1
21802.1
8184.08
24173.1
14124.1
21188.4
9939.59
25026.1
15677.9
18921.3
12523.2
23968.8
15989.1
17456.7
13444.5
13352.1
14316.4
17552.4
17895.3
19093.4
20428.6
28871.2
14324.5
12307.6
11591.4
13227.3
19928
25533.8
23057.4
29421.3
28700.4
23370.6
21858.9
28860.9
27934.1
20110.5
19840.4
26799.5
26696
13049.2
10555.1
13721.2
12456.4
15799.4
14941.9
17739.3
17713.5
24156
25450.6
12056.3
10967.6
12749.2
13315.2
14025.8
16017.3
16227.2
19314.1
21035.6
25506.1
10331.2
8142.85
6821.84
8395.84
12813.3
14984.7
8622.61
13245.6
6224.58
7832.61
9616.16
8023.1
1740.93
5409.23
617.513
1747.24
4231.75
8645
1286.12
2772.68
1123.69
4880.32
350.652
1552.58
6374.98
6371.56
7355.94
4804.48
10356.6
8490.97
12251.5
8823.64
1759.83
3432.12
3644.86
2212.3
1782.76
2275.68
2535.84
1912.1
18683.5
11489.8
3697.67
20992.4
12232.3
4035.53
17948.2
11365.5
3907.39
20539.3
12215.2
4031.55
16455.4
10453.7
3474.55
19863
12178.7
4088.44
7477.94
4471.05
1355.22
10437.2
6997.76
2400.89
13093.3
8999.46
3103.52
15577.3
10236.7
3426.36
19526.5
12388.9
4307.4
8511.08
5219.67
1805.82
10353.6
7558.27
2888.05
12848.7
9466.38
3528.75
15930.2
11247.6
4076.04
19815.5
12653.7
4543.54
258.553
2045.17
2818.84
4143.77
2442.54
2734.46
6041.57
5671.23
585.765
932.816
624.549
969.574
424.958
1289.58
793.528
1698.65
2951.85
1471.46
3869.98
2286.19
1977.72
3367.74
3299.42
307.984
6592.67
1129.37
-2649.57
-191.91
1335.38
605.522
621.989
206.203
8872.24
3647.21
2385.02
1343.68
9026.1
3760.95
3012.91
1686.66
8948.14
4004.56
4231.98
2640.33
2840.52
1814.94
839.375
840.129
13067.2
11396.4
5966.75
6085.45
14973.8
13851.7
7233.61
7163.51
4901.96
4955.39
10551.6
8546.37
3291.15
3473.46
1461.43
1858.21
4213.14
4160.53
1942.22
2190.49
2578.91
2869.21
1068.63
1632.59
4029.52
2429.02
3904.39
2343.96
6560.94
3285.48
6003.46
3336.19
2149.31
1621.59
2331.36
1414
843.516
803.893
1325.75
719.389
10146.6
6218.86
4551.59
4110.39
10167.8
6527.33
4553.99
4102.58
10778.7
7141.37
4621.59
4061.69
14360.7
16556.7
12248.4
7554.04
3624.71
15673.4
13424.4
11526.2
8707.81
4666.74
14590.9
12293
9131.19
6401.56
3333.56
4512.18
3468.69
3784.24
3738.29
4908.66
3625.41
3929.93
3811.06
5578.95
4049.6
4151.73
3970.78
11781.2
8447.5
10036.7
6885.33
7191.31
5524.75
6015.88
4730.55
3984.91
4110.29
9833.76
8591.76
7998.16
6839.41
6203.88
5374.98
4806.87
4406.99
3072.59
3886.75
7109.12
4855.69
4612.45
2907.62
9975.71
7685.09
6752.09
5550.16
3431.5
2096.19
5092.14
3665.13
4407.9
2120.41
1354.48
740.879
4999.58
3675.86
1464.83
1232.87
3525.49
1544.91
1170.15
567.137
2445.99
2084.78
1723.58
2353.79
3503.55
3028.11
2218.66
2978.85
2492.27
1458.29
1256.29
1607.77
576.035
233.921
-107.174
159.623
2247.45
948.761
278.881
2362.26
649.951
175.121
2424.92
1086.32
333.2
2445.23
706.581
199.382
2578.13
1228.41
335.934
2553.32
771.474
193.265
5494.94
3048.32
830.312
4256.77
2209.1
607.435
3526.94
1770.52
514.337
2951.94
1412.05
350.859
2673.62
805.638
152.981
6545.55
3548.39
1085.23
5121.68
2635.92
783.31
4045.9
2038.26
612.718
3256.04
1465.53
396.244
2918.75
780.322
201.297
1268.86
414.93
103.673
-24.6361
527.34
178.366
51.7081
1.03611
1325.44
442.513
124.713
-3.09101
648.275
230.627
100.773
41.4258
1393.38
474.75
166.374
36.5606
1034.09
396.11
114.861
18.1496
682.123
304.415
46.4719
-29.2208
502.103
268.41
103.886
42.261
1065.04
399.147
95.5676
-47.9535
868.356
317.933
119.029
-34.0384
1320.36
453.358
144.305
-5.77853
1145.58
389.646
145.418
-53.1137
769.804
320.799
90.4049
-19.3941
607.217
245.109
105.586
4.06357
462.87
226.752
96.8976
43.1189
346.364
167.564
87.6467
38.2099
1574.82
503.431
124.196
-60.6456
1477.96
458.241
166.038
-77.6488
1563.89
503.138
128.229
-58.8573
1433.68
443.478
166.069
-76.9436
1520.84
493.395
161.398
-25.8091
1346.11
415.677
182.422
-52.7162
1313.62
439.644
186.198
40.3375
1469.61
454.863
234.732
-56.9035
1134.06
376.946
172.261
-0.119238
1098.49
315.351
136.373
-40.1141
420.951
113.082
38.0785
-1.43004
1153.33
335.537
143.209
-37.0854
446.815
122.103
43.8305
2.97055
1202.95
356.713
160.37
-27.6307
469.346
131.987
49.9347
7.57065
1098.37
331.801
172.205
-14.8048
466.693
134.804
61.7476
15.4013
1005
318.319
169.158
2.83576
426.058
136.904
74.7129
24.463
641.505
217.566
88.5562
-0.569732
368.473
146.319
68.0198
28.6275
782.079
246.811
115.831
-1.98375
397.224
143.329
73.2589
27.7637
471.326
180.16
74.4588
8.72345
291.172
130.091
58.7511
28.5504
275.777
131.417
67.8901
30.4863
196.486
105.021
54.279
31.2653
-0.853182
1.20613
0.771175
0.372723
0.203676
0.610388
0.775964
0.428835
0.201474
0.109292
4.06426
3.11743
1.55384
0.707276
0.3801
6.0427
2.96189
1.3415
0.594517
0.317123
8.51285
5.18883
2.45691
1.10382
0.592152
18.9471
9.36912
4.17824
1.8447
0.985359
19.7857
10.2141
4.64593
2.0789
1.12109
27.7216
12.9392
5.74115
2.56266
1.38722
10.7548
7.0153
3.3301
1.50261
0.810142
11.5137
6.57429
3.03907
1.36257
0.733754
8.81154
5.86086
2.76343
1.23818
0.664051
15.2041
7.33615
3.18428
1.38893
0.737881
12.7373
7.90466
3.76457
1.71202
0.929432
14.8696
7.5816
3.4545
1.5515
0.839196
21.8341
10.3022
4.59384
2.05664
1.11545
18.3085
8.47452
3.77168
1.69022
0.917628
-3.72319
0.664566
0.571969
0.286703
0.157865
-2.31193
0.208375
0.218218
0.110472
0.0608393
-0.49385
1.90936
1.06785
0.495508
0.267125
-1.12348
0.670233
0.399956
0.186414
0.100409
3.11784
3.18164
1.5697
0.708535
0.379711
3.54595
2.20754
0.986832
0.430115
0.227226
11.8165
6.15851
2.71463
1.18516
0.62845
8.288
4.04629
1.72595
0.742881
0.391248
20.0545
8.24817
3.41551
1.46057
0.768676
2675.06
6083.04
2797.69
6075
3162.39
6079.94
3716.3
6279.38
3773.59
6345.51
1595.52
2271.1
2530.14
3801.46
863.119
1135.66
261.164
343.981
13653
3306.23
770.902
175.991
45.135
3759.57
1023.68
275.765
63.9658
14.4043
13379.8
3218.7
750.722
170.168
44.0051
3835.31
1138.93
284.713
67.4917
17.261
12573.7
3011.73
701.442
159.112
41.2746
3721.08
1097.78
273.598
64.5404
16.5724
11269.5
2684.29
625.115
142.055
36.9614
3582.48
1034.91
254.892
59.6606
15.2572
9205.02
2188.57
511.487
116.733
30.5088
3325.8
937.216
228.832
53.3296
13.6261
4174.22
1041.97
248.912
57.5248
15.1518
1603.49
459.227
111.517
25.5965
6.53599
6339.08
1557.68
368.44
84.5329
22.1675
2368.8
669.36
163.661
38.1533
9.82351
2416.95
608.617
146.274
34.0232
8.99652
895.174
266.04
64.3745
14.7726
3.80427
822.209
206.327
49.7626
11.6231
3.07734
336.112
92.6755
21.0445
5.92798
1.21434
-781.733
-104.997
4919.77
-1369.65
803.719
861.061
2499.4
3219.23
2037.99
3857.03
3355.4
5185.26
4158.42
5152.32
2125.54
2853
2214.24
2630
1147.53
1193.2
2161.53
1419.3
691.167
-19.273
-231.805
-268.68
157.742
14366
4641.47
5174.91
3853.11
570.789
636.576
3437.09
-362.493
54.7033
-157.543
-148.718
7776.55
4328.06
2084.5
1457.9
3669.79
2260.5
838.194
1465.49
-595.906
-125.417
1066.13
931.958
8859.69
4051.2
5612.94
2844.39
3779.93
5025.37
1702.59
-158.091
1329.23
1392
1024.87
796.466
636.101
419.209
1052.79
789.525
571.768
373.167
150.042
596.744
481.768
351.288
214.04
72.2227
-17.4298
-14.597
-10.7362
-6.41349
-2.1172
-205.732
-170.199
-125.788
-76.6319
-25.6623
-238.777
-197.879
-146.538
-89.439
-29.9841
138.896
115.273
86.8604
54.5448
18.7522
9694.75
7505.51
5597.61
4266.49
3188.47
3609.66
2727.81
2121.71
1476.17
664.605
3819.72
2838.39
2092.67
1394.18
609.028
2786.42
1986.11
1460.06
957.337
360.02
478.309
337.369
283.499
197.611
77.3302
583.091
501.922
391.402
254.317
90.7766
2768.31
2137.98
1529.75
957.288
355.256
-115.522
36.9869
87.299
81.8814
34.5259
68.6022
79.1908
78.8384
61.1262
24.3083
-43.9662
34.4062
70.6509
65.4031
27.0911
-142.446
-121.774
-89.4302
-52.7392
-16.9113
5345.38
4306.49
3276.35
2541.14
1908.41
3228.3
2404.08
1778.82
1174.4
490.81
1783.03
1446.3
1077.54
681.894
243.445
1231.72
985.082
723.034
450.738
158.197
2973.86
2292.84
1637.86
1010.55
362.078
1928.55
1550.94
1139.22
706.883
243.926
711.613
569.772
416.6
257.228
88.6745
1258.01
1012.3
738.614
452.161
153.682
-508.049
-401.042
-282.756
-165.707
-54.1354
-111.017
-89.6236
-62.7993
-35.5129
-11.0934
910.913
732.378
536.976
332.211
114.646
802.054
648.98
477.567
295.233
101.258
5444.67
3658.38
2781.64
2156.55
1543.18
2962.27
2171.24
1547.06
1001.15
407.381
3939.09
2990.6
2179.68
1480.11
633.225
2188.08
1680.25
1211.84
776.43
304.817
3114.29
2435.31
1756.85
1086.1
382.083
3723.78
2665.37
1940.24
1266.84
477.892
1450.29
1159.62
843.169
516.283
176.118
-141.671
-116.995
-84.9286
-50.1951
-16.3206
1128.15
904.174
663.658
412.541
143.198
-35349.2
-56744.6
-29466.3
-45819.4
-30956.1
-62917.1
-36895.7
-80021.4
-22667.2
-15799.1
-24913.4
-15912.1
-20654.3
-13513.5
-24981.5
-13604.3
-29867.3
-23018.7
-42680.6
-31345.1
-25749.7
-21004.9
-35511.1
-27172.1
-20305.1
-21203.2
-16859.3
-16618.4
-20280
-18613.2
-47126
-13054.4
-18465
-7079.53
-56784.6
-15936.8
-16467.3
-6439.96
-35638.5
-11241.5
-18925.4
-7380.9
-32098.5
-9919.17
-16020
-6528.4
-19937.3
-7294.39
-15290
-6815.29
-17285.6
-6337.9
-15783
-7831.06
-13826
-5582.2
-17291.3
-6184.61
-6051.12
-2149.64
-13244.9
-9344.1
-11413.6
-7324.94
-11426.3
-9458.88
-9892.88
-7229.58
-11775.7
-7164.69
-13946.7
-9338.22
-7884.78
-4977.76
-4326.03
-2853.22
-6815.5
-4851.86
-3715.76
-2777.3
-8063.5
-4710.54
-4464.79
-2465.91
-10528.9
-5422.69
-7218.93
-8093.45
-13532.1
-9210.03
-10274.4
-13794.5
-7088.19
-3218
-4347.88
-4636.36
-3796.71
-1545.71
-2002.92
-1772.35
-16253.5
-20269.7
-9315.2
-23224.9
-16897.6
-19329.8
-10717.8
-23707.4
-17041.7
-17487.2
-12762.9
-22454
-11328.5
-9044.1
-12779.2
-14348.9
-14399.1
-12148.3
-14482.5
-17271
-19068.2
-27077.7
-8683.72
-9401.74
-10467.4
-12630
-19121.1
-19538.4
-13723.8
-24986.3
-19405.6
-18117.5
-13486.8
-24621.4
-19356.1
-16008.8
-12693.3
-22992.4
-19219.9
-9886.91
-7903.42
-10879.9
-8892.85
-12424
-10379.2
-13994
-12188.2
-20885
-19360.7
-9109.68
-8103.28
-9876.65
-9247.38
-11301.6
-11301.3
-13731.5
-14289.3
-18933.4
-20152
-8603.94
-6856.4
-6332.69
-7769.01
-9979.83
-12848
-7553.99
-11884.6
-6094.9
-7522.41
-8689.69
-7124.38
-1753.07
-5200.73
-785.012
-1743.77
-3923.11
-8110.26
-1238.99
-2540
-1286.43
-4847.41
-615.297
-1649.37
-6352.59
-6164.84
-7296.9
-4590.23
-9808.27
-7730.39
-11807.8
-8002.89
-1915.22
-3441.71
-3708.43
-2187.86
-2014.19
-2382.64
-2655.96
-1970.14
-8408.2
-2891.18
-11430.1
-3883.61
-8601.69
-3030.94
-11706.3
-4182.17
-8561.37
-2989.94
-12336.2
-4700.41
-4820.08
-1457.97
-6269.32
-2347.18
-7376.6
-2814.1
-9052.12
-3376.43
-13083.9
-5142.84
-5846.49
-1916.81
-6259.91
-2877.22
-7789
-3474.04
-10276.8
-4325.69
-13788.6
-5181.83
-7899.46
-7318.83
-6339.67
-6076.33
-13174
-10140.5
-10941.2
-9064.02
-5044.3
-3973.98
-2118.96
-1428.83
-4893.88
-4313.55
-2108.46
-1997
-4135.74
-5693.15
-4661.6
-6074.63
-4516.54
-3444.38
-4631.14
-1536.01
-8838.15
-2938.72
1696.5
-731.933
-1968.55
-1312.85
-751.968
-492.595
-2460.59
-1412.35
-972.723
-486.109
-2725.52
-1541.21
-1542.34
-660.361
-3179.54
-1882.18
-2437.2
-1148.16
-2027.38
-691.063
-371.919
221.497
-6289.5
-6533.2
-5109.89
-4614.03
-8712.66
-8627.98
-7385.39
-6183.81
-3346.02
-3367.74
-4522.23
-4844.3
-3404.25
-2870.59
-1809.98
-1571.66
-4983.98
-3948.22
-2775.96
-2237.77
-2121.95
-2039.47
-948.117
-1102.94
-2105.25
-1188.26
-2519.99
-1454.54
-2824.04
-1718.33
-3603.54
-2173.1
-1184.57
-661.835
-1473.5
-718.699
-245.055
22.2194
-694.372
-120.917
-3256.69
-3641.29
-2205.84
-2833.54
-3318.65
-3782.98
-2263.77
-2836.23
-3670.5
-3746.29
-2421.41
-2738.18
-4023.28
-6437.14
-3169.92
-2304.04
-1686.42
-9220.81
-6370.47
-5205.54
-4394
-3213.8
-7443.22
-5868.62
-4464.19
-3508.82
-2063.43
-3815.75
-3416.55
-3863.06
-5609.3
-3814.76
-3251.26
-3765.1
-5415.61
-3841.29
-3366.71
-3561.1
-5109.91
-8533.05
-6521.57
-7096.65
-5293.42
-5491.17
-4183.48
-4631.08
-3879.59
-3398.41
-4752.9
-6890.99
-6392.74
-5352.65
-5097.85
-4159.82
-4043.84
-3449.02
-3649.25
-2272.37
-4011.66
-4435.53
-3201.52
-3229.05
-1632.01
-6796.37
-5795.87
-5329.1
-4146.41
-2245.69
-1027.29
-3135.34
-2358.46
-3659.62
-1443.23
-908.961
-289.525
-4385.12
-3012.19
-1188.48
-835.359
-2779.62
-938.707
-642.959
-130.111
-1581.79
-1366.29
-1225.22
-2039.12
-2266.24
-2184.1
-1631.2
-2725.42
-1854.04
-997.654
-800.102
-1326.49
-51.8045
141.472
538.568
124.722
-2344.8
-702.593
-3660.51
-329.492
-2310.2
-791.943
-3609.21
-352.341
-2051.55
-590.391
-3319.36
-249.722
-3739.21
-989.489
-3072.53
-828.411
-2747.61
-866.732
-2276.31
-505.949
-3141.85
-371.904
-4703.05
-1135.41
-3748.55
-756.54
-3126.35
-667.535
-2752.41
-446.738
-3294.6
-421.717
-596.429
-183.044
-9.80177
73.6329
-224.039
-67.9656
-8.56765
18.5117
-617.869
-181.868
-15.0607
59.9514
-222.46
-56.4444
-30.3349
-10.6172
-665.068
-183.298
-37.6863
30.1292
-275.135
-37.0915
60.2851
72.375
49.8013
83.7118
154.032
132.092
318.736
196.514
135.989
77.4614
-438.129
-92.88
63.1411
137.442
-351.071
-46.455
24.3879
120.539
-695.335
-177.958
-10.5381
83.0853
-557.788
-107.458
-1.38478
148.934
-166.705
4.75482
78.9362
109.066
-147.487
14.7168
37.2196
79.3052
132.684
113.543
86.0288
54.1019
84.722
86.493
56.267
46.0079
-851.457
-251.269
-16.9469
126.994
-963.046
-256.393
-89.5286
147.78
-834.484
-238.615
-12.4339
130.567
-935.167
-244.509
-88.4993
147.754
-803.189
-217.735
-43.5635
95.867
-870.321
-221.831
-106.458
123.943
-590.173
-142.257
-52.8763
38.7418
-927.33
-222.477
-136.394
148.388
-548.514
-108.928
-37.6771
97.3831
-829.183
-183.32
-86.734
91.7353
-347.468
-67.64
-14.9757
18.6173
-794.667
-172.707
-81.76
92.8739
-337.576
-64.5423
-15.8232
16.7313
-717.901
-149.367
-85.325
87.4594
-301.601
-54.5578
-12.8974
17.3473
-620.051
-124.835
-96.9
73.1227
-262.11
-44.2445
-18.6315
13.9021
-504.125
-90.3252
-77.2892
58.7992
-169.677
-19.7961
-19.9631
11.6408
-298.267
-28.3019
14.3994
70.8207
-45.9179
28.2022
22.3929
28.5403
-426.824
-68.1324
-26.5215
65.7695
-87.5434
8.56565
1.3829
19.9919
-129.006
21.2404
38.8824
65.6438
12.147
49.9512
39.7197
33.6709
61.629
74.7835
49.4494
45.1641
91.6218
75.8615
46.7133
32.4153
13.9882
3.1358
0.874148
0.31684
0.161074
5.55882
1.43629
0.43789
0.166341
0.0861579
14.9804
4.12133
1.39474
0.567
0.302099
7.6109
2.75532
1.07768
0.466073
0.253743
18.1435
5.64774
2.1024
0.893733
0.483301
20.6338
8.01048
3.35206
1.49088
0.817973
24.5014
9.75979
4.11993
1.82793
0.997474
27.2324
12.2399
5.39787
2.4217
1.32105
23.2387
7.57245
2.95865
1.28132
0.695497
19.5278
6.66522
2.66335
1.16275
0.632667
20.4513
6.16821
2.34277
1.00828
0.547584
16.0778
5.78379
2.43267
1.09025
0.600896
25.1339
8.89522
3.57156
1.55393
0.841563
19.3176
7.54692
3.15383
1.39241
0.758021
22.7095
10.0339
4.39544
1.96675
1.07159
18.6971
8.29497
3.63069
1.62313
0.884033
16.2956
2.94391
0.730445
0.250129
0.12442
7.80981
1.2243
0.285752
0.0958484
0.0474173
16.5802
3.46216
1.02942
0.397532
0.208332
7.8872
1.39966
0.390143
0.14776
0.0770718
16.2005
3.97944
1.35994
0.562566
0.302074
7.54129
1.95951
0.731567
0.317217
0.173764
16.4968
5.13144
2.03754
0.898
0.492962
9.3018
2.92941
1.20764
0.541949
0.299945
12.2205
5.24671
2.34626
1.07728
0.599845
-2490.42
-4900.65
-2624.07
-4955.1
-2962.25
-5065.94
-3346.18
-5274.78
-3295
-5337.07
-1484.88
-2100.44
-2261.56
-3351.78
-845.628
-1095.06
-292.576
-363.015
-13106.1
-3185.65
-746.352
-171.291
-44.2008
-3562.68
-984.539
-266.769
-62.2066
-14.1066
-12835.8
-3101.12
-727.036
-165.714
-43.1183
-3637.17
-1094.41
-275.294
-65.6132
-16.882
-12051.9
-2902.98
-680.012
-155.14
-40.4906
-3524.57
-1053.53
-264.36
-62.736
-16.2106
-10815.2
-2593.41
-607.593
-138.849
-36.336
-3380.53
-991.305
-246.132
-57.9987
-14.9303
-8891.04
-2126.73
-499.609
-114.565
-30.0898
-3130.29
-897.75
-221.213
-51.9232
-13.3548
-4126.53
-1029.83
-246.226
-56.9976
-15.0473
-1533.88
-443.012
-108.212
-24.9809
-6.41845
-6200.15
-1527.09
-362.24
-83.3733
-21.9429
-2237.86
-642.413
-158.446
-37.1969
-9.64095
-2405.93
-604.808
-145.293
-33.8156
-8.95403
-869.791
-258.705
-62.6826
-14.4373
-3.7383
-822.778
-205.317
-49.3937
-11.5341
-3.05828
-333.779
-90.4422
-20.3235
-5.76406
-1.18055
-1021.2
-2317.32
-7536.3
-320.695
-8209.48
-3637.32
-8015.26
-3816.68
-14595.7
-7802.28
-16235.6
-8542.8
-52.7231
-166.941
-261.078
-310.528
-258.313
22.6578
-91.6343
-287.772
-447.239
-521.37
-433.012
-82.6563
-40.5179
-39.5889
-123.375
-120.868
-175.32
-177.229
-159.684
-170.446
-119.454
-159.763
-20.6315
-93.1536
752.435
1736.54
2875.22
2043.98
1805.83
743.709
605.223
1618.68
2708.33
3220.76
2683.47
1109.83
-47.242
-39.6128
-29.7576
-18.4092
-6.22519
-149.689
-125.629
-94.4699
-58.4937
-19.79
-233.969
-196.237
-147.472
-91.2677
-30.8706
-278.113
-233.09
-175.037
-108.264
-36.6077
-231.679
-194.471
-146.225
-90.5148
-30.6158
16.674
10.6821
5.86064
2.75524
0.805389
-81.9713
-68.5964
-51.4268
-31.7646
-10.7323
-257.547
-215.665
-161.811
-100.016
-33.807
-399.786
-334.312
-250.501
-154.687
-52.2615
-465.177
-388.159
-290.26
-178.978
-60.4251
-385.657
-321.172
-239.739
-147.646
-49.8197
-75.1404
-63.9682
-48.6663
-30.3422
-10.2924
-36.3556
-30.5361
-22.9792
-14.2356
-4.8175
-35.5499
-29.8883
-22.5145
-13.9592
-4.72609
-110.756
-93.0868
-70.1008
-43.4546
-14.7108
-108.543
-91.2647
-68.7575
-42.636
-14.4363
-157.332
-132.176
-99.4942
-61.6534
-20.8676
-158.999
-133.529
-100.474
-62.2411
-21.063
-143.447
-120.651
-90.9133
-56.3759
-19.0874
-152.771
-128.149
-96.3072
-59.5993
-20.1575
-107.822
-91.1445
-68.9678
-42.876
-14.5312
-142.974
-119.687
-89.7428
-55.4278
-18.7252
-20.8951
-19.6613
-16.1208
-10.4827
-3.61126
-83.7583
-70.425
-52.9563
-32.7355
-11.0559
656.24
534.439
391.491
238.413
80.1528
1502.44
1215.3
886.856
540.062
182.072
2446.62
1954.13
1417.71
865.45
294.639
1721.21
1367.07
992.477
608.37
207.813
1549.71
1233.52
891.068
539.128
174.285
660.774
536.602
393.262
239.091
75.3352
528.17
430.375
315.367
192.059
64.5554
1405.28
1139.99
833.238
507.373
170.796
2329.68
1875.08
1364.43
830.656
280.468
2744.22
2191.94
1589.06
967.996
328.065
2282.97
1819.35
1316.98
801.73
270.81
951.578
764.202
557.411
341.26
115.329
67.7591
184.275
282.804
338.735
295.368
30.9649
115.199
314.328
478.18
555.005
464.931
110.704
51.294
48.3112
135.976
131.84
190.841
191.715
177.945
186.504
146.659
162.917
85.828
117.999
-675.747
-1621.78
-2686.03
-1820.4
-1583.28
-529.294
-575.567
-1574.76
-2622.27
-3083.02
-2503.13
-905.086
60.9017
51.2653
38.6723
24.0077
8.13442
165.444
139.077
104.764
64.9616
21.9964
253.73
213.117
160.405
99.3991
33.6453
303.781
255.03
191.856
118.844
40.2189
265.4
223.293
168.318
104.41
35.3585
31.9485
30.6944
25.7087
17.0244
5.93065
103.397
86.892
65.4385
40.5716
13.7371
281.713
236.323
177.649
109.98
37.2082
427.981
358.454
269.042
166.368
56.2518
495.876
414.495
310.524
191.764
64.7967
414.813
346.206
259.019
159.819
53.9835
100.634
85.7271
65.3189
40.8021
13.8597
46.1398
38.8768
29.3557
18.2378
6.1819
43.4673
36.6355
27.671
17.1948
5.82899
122.201
102.849
77.5679
48.1433
16.3096
118.508
99.7633
75.2576
46.7172
15.8279
171.436
144.213
108.706
67.4402
22.8413
172.168
144.771
109.082
67.6508
22.9085
160.038
134.806
101.743
63.1777
21.407
167.383
140.639
105.881
65.6218
22.2131
132.571
112.292
85.1737
53.0668
18.009
146.208
122.825
92.4384
57.2675
19.3799
79.9485
69.8503
54.3684
34.4268
11.7628
106.501
89.9976
68.0617
42.2869
14.3256
-587.133
-476.074
-347.317
-210.929
-70.8334
-1399.31
-1128.45
-821.33
-499.436
-168.342
-2275.09
-1807.99
-1306.22
-795.779
-271.048
-1508.97
-1177.65
-841.272
-510.051
-173.381
-1331.6
-1033.88
-727.726
-430.192
-135.011
-447.208
-338.042
-228.473
-127.877
-35.0563
-501.58
-408.056
-298.585
-181.676
-61.0473
-1366.12
-1107.32
-808.844
-492.386
-165.759
-2251.68
-1808.7
-1313.82
-799.013
-269.726
-2616.21
-2079.91
-1501.2
-911.716
-308.628
-2111.77
-1666.39
-1194.55
-721.848
-242.811
-755.168
-586.816
-413.982
-246.88
-82.0871
-1866.45
-1166.63
-516.394
160.508
392.388
491.151
76.3292
-12144.3
-2669.55
-3850.38
-1788.32
-149.525
-3692.34
337.034
1665.35
647.674
-6705.18
-3327.55
-1145.14
-960.678
-3328.43
-1661.07
-577.465
-1160.69
1178.58
539.473
-739.695
-541.59
-8331.17
-3744.35
-4884.49
-2407.82
-3397.91
-4099.29
-1353.31
522.334
-857.391
-1038.15
-676.359
-489.478
-414.922
-328.757
-786.187
-532.981
-352.392
-220.349
-92.1138
-438.68
-347.689
-249.358
-150.394
-50.6021
146.012
124.51
94.9649
59.3723
20.1906
351.352
294.111
220.329
135.878
45.8448
439.518
367.744
275.457
169.913
57.3423
74.4855
67.3068
53.1064
33.4427
11.2613
-8088.85
-6358.24
-4866.42
-3987.74
-3381.73
-1771.18
-1131.52
-915.497
-744.18
-419.297
-2685.72
-1890.15
-1388.19
-971.624
-479.756
-1159.22
-729.486
-551.941
-397.098
-156.678
-110.76
-79.8721
-58.6868
-41.6011
-17.7385
-2957.46
-2281.9
-1629.41
-1019.04
-378.853
311.839
263.4
194.094
115.284
36.8487
1410.87
1117.33
799.547
479.236
159.773
575.641
475.412
350.26
212.654
70.8619
-4371.95
-3528.65
-2724.09
-2253.11
-1904.29
-2313.17
-1617.42
-1179.34
-805.132
-372.187
-922.311
-710.096
-515.446
-330.906
-124.964
-780.177
-601
-430.888
-268.763
-96.8076
-2689.71
-2071.38
-1483.58
-922.672
-335.518
-1374.36
-1071.21
-768.6
-472.968
-163.962
-472.93
-364.488
-258.506
-157.591
-54.6996
-982.613
-779.173
-561.97
-342.301
-116.502
1035.7
848.932
623.735
379.237
126.904
485.299
406.952
304.109
186.406
62.4479
-612.034
-476.75
-341.805
-210.18
-73.2765
-447.442
-347.178
-247.695
-151.614
-52.5097
-4948.77
-3215.46
-2429.6
-1940.04
-1496.93
-2666.71
-1902.89
-1329.58
-858.2
-357.122
-3216.45
-2353.19
-1671.02
-1152.87
-510.064
-1774.74
-1311.48
-918.801
-587.486
-240.28
-2766.3
-2137.43
-1529.3
-944.204
-334.275
-2883.76
-1934.69
-1381.66
-920.694
-362.832
-1134.72
-892.285
-640.371
-390.066
-133.413
470.969
396.214
297.226
182.879
61.4503
-696.847
-534.577
-380.451
-234.934
-82.8423
-10.6198
-16.2846
-22.362
-52.2284
-131.667
-270.173
-25542
-22650.8
-21199.7
-24082.7
-18901
-15085.6
-16736.5
-12803.8
-22701.6
-20315.5
-20977.1
-20069.3
-18526.4
-15928.5
-19595.8
-21341.8
-19180
-17301.4
-19421.9
-16242.8
-13796.9
-14240.1
-11469
-20662.4
-18809.9
-19112
-17787.6
-16674.9
-15520.6
-16332
-17074
-15721.2
-13883.5
-15140.8
-13733.8
-11883
-12019
-10310
-17557.8
-16476.4
-16393.4
-15453.6
-14362
-13265.6
-14053.9
-12215.6
-11532.6
-9957.29
-10546.7
-10404.5
-9378.44
-9043.85
-8207.74
-13020.6
-13305.4
-12318.3
-12595.8
-11071.4
-10069.5
-11274.6
-7936.99
-7605.08
-6470.81
-6751.11
-7043.41
-6404.07
-6020.63
-5531.67
-8720.94
-8823.42
-8341.04
-8322.54
-7642.85
-6945.64
-7600.21
-2879.55
-2781.53
-2351.81
-2436.07
-2614.03
-2436.66
-2215.7
-2056.81
-3281.44
-3334.51
-3096.62
-3025.73
-2872.86
-2640.97
-2857.17
-9362.69
-9191.53
-14229.2
-15333.7
-8742.18
-7748.58
-12484.9
-10159.6
-6838.9
-4716.56
-6824.98
-4789.06
-6823.44
-6612.53
-4988.21
-9272.44
-8797.62
-12749.5
-13874.9
-8161.4
-7356.33
-11110.8
-9512.78
-6774.39
-3964.89
-6681.46
-4258.42
-6113.45
-5945.63
-4756.27
-8368.93
-7961.24
-10829.9
-11608.1
-7450.46
-6875.86
-9682
-8507.97
-5506.32
-3945.22
-5491.97
-4271.16
-5096.24
-5146.32
-4582.38
-6619.19
-6348.38
-8113.22
-8533.67
-5996.58
-5559.01
-7481.62
-6770.05
-4953.36
-3303.07
-4878.33
-3605.09
-4541.69
-4550.35
-3844.84
-4480.73
-4323.34
-5349.69
-5565.11
-4021.62
-3688.69
-5018.52
-4572.74
-3354.93
-2384.84
-3296.05
-2589.35
-3080.32
-3057.46
-2632.76
-1650.55
-1595.62
-1951.77
-2020.32
-1481.4
-1352.94
-1844.09
-1689.55
-1110.82
-860.163
-1167.68
-962.525
-1128.72
-1110.91
-949.16
8627.77
27788.6
6895.49
29048.6
5113.5
29810.4
7942.59
45180.4
9733.88
61905.6
9742.98
45542.1
9469.45
38045
9868.67
33433.2
5963.95
3814.44
16037.5
9641.56
5756.85
3125.39
17184.7
8513.23
6677.31
5034.35
21026.5
15308.2
5062.97
3851.46
21090.7
15809.3
11993.1
5126.65
10455.8
4745.93
4969.34
11413.5
39914
10646.1
14330.8
4560.4
50599.7
13476.8
13083.3
4156.87
29004.6
8889.13
14893.9
5017.59
25662.2
8073.55
8642.35
4285.58
11334.9
4526.04
9464.39
5087.07
11200
4418.73
11618.7
6700.95
9631.78
4315.95
13667
5015.22
4625.88
1645.41
15568
11069.9
9328.02
6913.95
16210
13365.6
8687.35
7448.75
9302.35
6538.24
13762.8
9629.26
5910.72
4355.99
2695.24
2206.83
5371.55
4588.93
2427.73
2376.93
5966.86
4018.03
2803.73
1795.21
8647.33
4814.1
6748.52
7965.63
12321.5
8856.58
10175.2
13937.6
5501.88
2683.98
3833.75
4451.18
2545.41
1100.3
1507.4
1583.23
12223.8
21805
8139.62
24172.2
14126.8
21183.3
9944.69
25022.3
15678.2
18920.1
12524.4
23968.2
15988.1
17454.3
13444.1
13352.8
14317.5
17550.2
17893.9
19092.5
20428.3
28871.4
14322.7
12306.7
11591
13227.4
19928.6
25577.3
23120.6
29442.2
28681.2
23360.8
21852.1
28849.6
27927.5
20106.9
19835.7
26798.1
26694
13047.7
10553.9
13720
12455.2
15798
14940.2
17737.3
17711.1
24155.2
25449.5
12055.1
10966.5
12748.2
13314
14025
16016.2
16226.6
19313.1
21035.7
25505.7
10330.6
8142.57
6821.61
8395.78
12812.2
14983.8
8622.11
13245.1
6224.55
7832.74
9615.92
8023.02
1740.78
5409.2
617.382
1747.18
4231.56
8644.75
1286.07
2772.61
1123.6
4880.4
350.51
1552.54
6375.14
6371.74
7356.25
4804.63
10356.7
8491.06
12251.9
8823.79
1759.86
3432.22
3645.01
2212.36
1782.75
2275.71
2535.9
1912.13
18728.4
11514.9
3713.1
21009.2
12250.3
4041.58
17943.2
11364.6
3907.49
20535.1
12213.3
4031.52
16452.1
10452.3
3474.25
19860.7
12177.2
4088.06
7477.05
4470.48
1355.03
10436
6996.98
2400.64
13091.7
8998.43
3103.19
15575.1
10235.4
3425.98
19525.1
12387.7
4306.99
8510.15
5219.06
1805.59
10352.5
7557.44
2887.73
12847.5
9465.39
3528.37
15929
11246.6
4075.62
19814.6
12652.7
4543.13
264.406
2047.41
2834.49
4148.59
2445.05
2735.61
6050.28
5674
569.171
921.885
605.793
954.832
429.253
1288.81
797.998
1697.5
2964.99
1476.92
3874.92
2287.52
1981.3
3376.14
3304.51
312.139
6595.72
1131.41
-2636.52
-182.874
1341.57
611.084
632.5
214.572
8886.41
3647.45
2376.95
1339.31
9016.62
3760.29
3010.44
1686.22
8942.61
4003.24
4233.36
2639.81
2844.81
1815.42
844.654
841.941
13063.2
11394.1
5967.75
6085.47
14970.9
13849.6
7234.16
7163.44
4903
4955.34
10547.5
8544.4
3293.45
3474.05
1463.25
1858.79
4214.51
4160.88
1943.01
2190.74
2581.52
2869.79
1071.05
1633.29
4029.85
2428.92
3904.22
2343.81
6558.28
3284.62
6002.04
3335.5
2151.19
1622.11
2331.79
1414.22
845.758
804.914
1326.39
719.83
10174.4
6220.04
4555.43
4110.47
10159
6526.29
4552.32
4102.01
10770.4
7137.68
4619.57
4060.3
14355.2
16552.7
12242.7
7550.19
3623.43
15670.1
13420.1
11521.5
8703.92
4665.16
14588.2
12289.9
9128.45
6399.56
3332.68
4506.7
3464.22
3781.6
3734.16
4907.3
3625.52
3927.98
3810.19
5576.88
4048.52
4150.66
3970.07
11779.1
8446.2
10034
6883.81
7188.71
5523.23
6013.64
4729.18
3983.74
4109.34
9832
8590.42
7996.01
6837.9
6201.86
5373.54
4805.26
4405.78
3071.71
3885.82
7107.33
4854.59
4611.84
2907.1
9974.1
7684.01
6751.49
5549.6
3430.99
2095.77
5090.66
3664.18
4407.83
2120.25
1354.73
740.976
4999.46
3675.65
1464.94
1232.89
3525.43
1544.79
1170.46
567.262
2445.61
2084.38
1723.33
2353.38
3502.51
3027.33
2218.12
2978.19
2492.24
1458.17
1256.3
1607.61
576.349
234.061
-106.883
159.739
2245.29
948.703
279.364
2363.06
652.668
175.751
2424.55
1086.57
333.269
2444.18
705.962
199.397
2577.56
1228.26
335.928
2552.78
771.174
193.202
5494.12
3047.87
830.169
4255.94
2208.69
607.315
3526.13
1770.16
514.238
2951.21
1411.76
350.784
2673.03
805.413
152.92
6544.62
3547.88
1085.06
5120.73
2635.45
783.167
4045.01
2037.86
612.599
3255.27
1465.19
396.148
2918.12
780.141
201.248
1264.84
413.035
102.855
-24.8688
522.767
176.486
51.0846
0.846653
1325.54
442.529
124.703
-3.13101
648.248
230.605
100.717
41.3696
1393.19
474.696
166.347
36.527
1033.84
396.011
114.806
18.0986
682.118
304.383
46.4579
-29.2329
502.575
268.56
103.94
42.2774
1064.98
399.129
95.5664
-47.9535
868.342
317.942
119.036
-34.023
1320.12
453.292
144.284
-5.79334
1145.4
389.597
145.4
-53.1108
769.944
320.851
90.4328
-19.3785
607.339
245.173
105.618
4.08339
463.24
226.897
96.9597
43.1436
346.6
167.678
87.7032
38.2387
1574.73
503.164
123.672
-61.0174
1479.61
458.781
166.028
-78.0599
1563.45
502.966
128.186
-58.8897
1433.33
443.351
166.067
-76.9496
1520.41
493.258
161.357
-25.8251
1345.7
415.55
182.386
-52.7223
1313.24
439.508
186.134
40.2953
1469.19
454.741
234.68
-56.9097
1133.81
376.865
172.214
-0.154959
1101.96
316.622
136.91
-40.4976
422.995
113.75
38.2729
-1.53111
1151.78
335.03
143.039
-37.0743
446.177
121.899
43.7411
2.97603
1202.46
356.515
160.304
-27.6448
469.11
131.892
49.8918
7.55777
1098.01
331.671
172.15
-14.8158
466.521
134.737
61.7132
15.3829
1004.73
318.227
169.113
2.82496
425.934
136.854
74.6819
24.4431
641.473
217.573
88.5616
-0.560912
368.469
146.32
68.0163
28.6231
781.94
246.776
115.814
-1.98466
397.152
143.297
73.2368
27.7478
471.402
180.212
74.4868
8.74375
291.244
130.134
58.7714
28.5613
275.941
131.509
67.9387
30.5164
196.622
105.101
54.3208
31.2904
-1.05305
1.11554
0.733088
0.356358
0.195014
0.48223
0.71831
0.40425
0.19082
0.103631
4.05346
3.11228
1.55118
0.705848
0.379185
6.03366
2.95787
1.33938
0.593345
0.316366
8.49956
5.18266
2.45373
1.10209
0.591035
18.9254
9.35914