/*--------------------------------*- C++ -*----------------------------------*\
  =========                 |
  \\      /  F ield         | OpenFOAM: The Open Source CFD Toolbox
   \\    /   O peration     | Website:  https://openfoam.org
    \\  /    A nd           | Version:  11
     \\/     M anipulation  |
\*---------------------------------------------------------------------------*/
FoamFile
{
    format      ascii;
    class       volScalarField;
    location    "0.9";
    object      gradTx;
}
// * * * * * * * * * * * * * * * * * * * * * * * * * * * * * * * * * * * * * //

dimensions      [0 -1 0 1 0 0 0];

internalField   nonuniform List<scalar> 
5712
(
-7825.22
-10008.6
-18354.3
-26998.8
-27648.7
-47576.8
-21038.1
-53333.2
-16978.1
-37253.7
-25388.4
-38727
-22631.2
-29933
-10003.2
-11507.9
-17952.6
-20626.5
-22844
-22699.6
-17799.9
-21791.6
-26044.3
-23296
-6518.38
-5056.18
-8079.13
-5574.53
-15216.5
-12478.4
-25724.6
-18991
-19841.3
-20761.1
-22456.2
-21977.7
-8349.82
-6304.89
-46264
-61971.1
-30103.3
-36911.7
-61320.3
-79766.1
-31857.5
-36511.4
-34750.7
-49091
-30610.9
-40425.8
-18157
-29024.7
-3638.91
-1242.8
-3801.72
-1385.94
-10941.2
-4471.37
-14804.3
-5522.4
-10848.3
-4123.33
-11141.3
-3612.11
-18773.9
-6035.49
-24196.7
-8246.93
-27997.3
-14204.7
-25705.6
-15220.1
-25683.1
-16643.2
-22695.5
-16744.3
-20766.5
-12456.6
-20876.2
-10945
-26607.7
-16750.7
-26723.7
-16848.8
-24054.3
-17588.2
-24367.8
-17587.1
-22401.1
-14179.1
-23210.4
-14487.3
-21480.2
-9574.12
-10262.7
-12847.3
-21512.3
-10539.8
-9136.06
-13260.9
-22735.4
-9458.89
-11487.6
-12805.1
-23892.2
-9668.31
-12421.3
-13303.6
-4694.04
-5158.94
-1616.67
-3349.51
-13534.7
-14353.3
-5447.96
-10154.3
-17333.9
-18966.9
-8967.74
-15479.5
-12197.4
-51.1085
-14957.8
-19618.8
-11315.3
355.56
-6652.25
-13928.8
-23119.2
-17977.1
-11483
-14454.7
-13356.5
-12159
-19400.4
-4310.22
-3395.39
-2524.96
-2461.11
-11939.3
-9546.95
-7623.36
-7128.19
-14628.8
-11504.4
-9952.45
-8730.97
-5343.62
-7064.89
-11542.9
-12217.7
-15477.6
-13888.7
-17676
-14839
-13290.1
-11161.9
-9526.47
-9227.94
-12841.5
-8969.04
-12180.9
-7772.92
-11022.1
-6690.32
-13756.8
-8578.86
-10810.8
-3697.45
-9620.62
-9563.38
-13086.1
-16054.2
-14526.3
-20328.5
-7967.75
-8001.87
-9830.38
-1621.48
-8695.91
-15809.7
-8295.71
-17156.3
-14441.2
-25281.4
-14689
-27064
-6948.22
-14094.3
-6426.15
-15227.1
-9809.77
-6655.05
-14092
-5044.94
-9588.58
-378.376
-12044.7
502.671
-9598.42
-10500.8
-14833.1
-6561.18
-8107.12
-12554.5
-13299.3
-8712.55
-2498.22
-2068.43
-1647.78
-1833.35
-1583.65
-1297.55
-7189.69
-5237.01
-4060.93
-4911.91
-3471.13
-2698.08
-8184.67
-6298.3
-5470.05
-5810.64
-4116.91
-3609.95
-5671.86
-4329.23
-3969.13
-10140.4
-6535
-4998.8
-10348.2
-6502.1
-4672.96
-10726.5
-7357.86
-5883.17
-7796.6
-4443.61
-3101.83
-14448.5
-10945.4
-8450.9
-10012.7
-7294.11
-5218.37
-9701.09
-6511.22
-4368.59
-8818
-5510.36
-3507.97
-10149.3
-5113.71
-2396.46
-11369.1
-15132.7
-9220.74
-11640.8
-12857.5
-18496.4
-11697.8
-16555.2
-9.33637
-695.659
499.771
-164.566
-3068.89
-3298.18
-1415.43
-816.029
-1019.51
-2674.9
-9937.99
-14174.9
-6630.14
-3973.55
-10976.9
-10914.6
-17449.9
-19240.4
458.447
4296.43
-8120.04
-7572.7
-7489.02
-5727.9
-1030.44
-534.991
-766.132
-370.439
-2056.39
-190.863
101.98
633.542
-9290.34
-2189.52
-6563.9
-1693.93
-9302.72
-2752.36
-11135.9
-3374.09
-9809.5
-12303.4
-8953.81
-11927.6
-16079.6
-16313.2
-15225.9
-15332.2
-5883.82
-9034.85
-6844.95
-9018.9
-9410.58
-11445.3
-10266.3
-11468.9
-15825.9
-14995.8
-16506
-14969.3
-5875.91
-8694.43
-6289.88
-8757.96
296.599
-849.098
-6447.82
-3296.8
727.202
-500.268
-5974.47
-2888.97
-103.574
-1090.31
-6547.08
-3590.63
-438.382
-1271.69
-6491.65
-3652.28
618.14
700.219
-143.651
33.3634
2632.05
2566.87
235.918
456.152
560.238
1728.69
-1244.93
-561.752
9795.34
10044.5
5090.35
3875.74
615.391
10862.2
10321.4
3791.63
5510.54
998.057
-11106
-8334.66
-6764.99
-5718.46
-2815.21
624.827
503.907
84.8582
48.2668
2026.08
1719.15
287.485
172.145
2069.28
2188.48
-218.932
-275.513
4894.15
1730.87
7263.5
3930.38
2957.45
1895.39
3319.33
2528.79
70.6464
-452.254
-4085.81
-2500.67
-1345.63
584.675
-980.4
502.654
-1167.69
-70.1531
-992.034
-1002.22
-5107.15
-4406.36
-9544.77
-5627.3
-8325.03
-7867.9
-12515.4
-9802.27
-6896.59
-3853.86
-3419.78
-3156.31
-11218.7
-4887.76
-12266.1
-5447.08
-13930
-10038.7
-14812.9
-10810.8
-8390.13
-3140.07
-9333.79
-3614.7
-4684.66
-3286.94
-2702.51
-3801.83
-2889.18
-2946.04
-2246.37
-3499.94
-5443.29
-3175.51
-3054.57
-4371.17
-6692.5
-3426.08
-4081.61
-4469.36
417.783
383.998
406.398
42.2839
135.416
142.019
1525.13
1416.41
1329.04
181.216
391.298
369.925
2050.71
1968.01
1862.38
-195.266
392.873
486.813
674.851
552.597
271.478
2302.16
2202.4
1929.59
1749.55
1816.81
1702
2196.61
2075.96
1895.47
-589.153
170.573
220.806
-3566.11
-2000.16
-1102.95
239.374
930.039
1263.24
324.581
1090.59
1381.16
150.045
901.673
1085.23
-1131
213.24
359.491
11.7851
11.7417
10.7634
15.8559
167.484
72.6238
48.222
34.8778
-9.7475
16.1762
57.8797
71.4831
254.991
120.724
123.649
99.0261
-173.73
-23.003
85.1293
135.854
38.652
66.4912
84.4858
78.9797
-42.032
29.2386
23.664
20.7211
-186.371
-35.9765
30.6229
48.2706
-673.599
-169.355
-25.7339
44.9528
-961.87
-239.747
-75.1539
97.4608
-452.965
-92.5068
25.5583
103.704
-783.306
-185.423
-79.1698
76.5835
-718.77
-189.372
-3.20265
78.2088
-1077
-278.987
-80.7415
120.224
-777.119
-220.865
1.79704
102.825
-1148.87
-308.87
-90.9681
124.068
7.18658
6.80569
10.8528
21.7495
33.8971
16.1866
3.96983
19.0601
56.0438
30.5853
43.3075
64.4874
134.258
57.8923
18.9321
53.5964
-261.438
-59.0845
26.9593
100.63
-93.1192
-0.874805
10.2433
91.3378
-29.9276
42.5171
66.6192
110.585
21.5178
42.664
5.3699
90.8509
-658.045
-145.851
-58.8229
120.892
61.065
25.2726
11.4042
17.077
105.586
38.6579
15.4366
9.56423
131.228
59.2639
19.4386
40.7924
274.782
103.06
37.0331
23.6463
96.4505
62.6605
21.6897
64.4386
362.537
144.731
54.4666
35.9473
-17.4172
51.404
24.0712
89.899
314.601
154.481
61.1284
43.1572
-303.017
-10.5747
-22.8656
73.79
140.988
127.579
47.2799
39.7731
-745.246
-112.802
-49.6163
77.7256
-222.558
9.46039
12.7265
27.345
-553.976
-53.3836
-39.5122
71.4065
-95.6595
62.1124
30.6613
34.8779
-904.439
-171.293
-64.7516
84.2489
-322.253
-33.9458
0.476793
23.1874
-1010.27
-219.158
-80.686
80.292
-398.406
-70.8364
-12.2985
18.2533
7.03657
2.46386
0.920634
0.373019
0.191109
9.4295
3.61657
1.43669
0.600743
0.312496
16.8043
5.63247
2.08692
0.84556
0.433779
20.2593
7.79305
3.11418
1.30924
0.683744
22.1149
6.98125
2.55187
1.03256
0.530252
26.1686
10.0812
4.03996
1.70467
0.892797
12.6782
4.90917
1.97485
0.838687
0.441912
9.38185
2.9761
1.08445
0.442091
0.229459
20.5304
6.80963
2.54594
1.04342
0.539939
9.75767
2.83922
1.00467
0.403116
0.206999
22.7188
7.92484
3.07676
1.28233
0.667765
9.58007
2.88266
1.04568
0.423393
0.217805
15.6564
4.47228
1.55318
0.617809
0.316413
9.20196
2.47442
0.852764
0.340348
0.174956
14.3543
3.15718
0.897154
0.319379
0.155376
7.93342
1.52844
0.401116
0.137329
0.0657304
6.01919
1.95107
0.70646
0.281748
0.14312
4.65791
1.59215
0.593781
0.239373
0.121926
15.0415
4.82137
1.76807
0.712838
0.364327
12.2077
4.12274
1.55156
0.63102
0.323156
20.5395
5.92036
2.09743
0.836898
0.426592
16.4183
5.53936
2.11354
0.869091
0.44816
18.4998
6.32033
2.45793
1.02434
0.532831
11.2595
4.10189
1.6174
0.675302
0.350845
9.31668
3.37086
1.34393
0.566225
0.296158
-107.2
-327.896
-84.8525
-751.019
281.76
-839.544
1126.62
-403.334
1889.64
846.058
-346.178
-1040.83
1311.42
1175.22
-1133.18
-2028.05
-1631.18
-2448.46
-916.143
-220.006
-50.9294
-11.5854
-3.02071
-224.562
-127.949
-17.5448
-5.07327
-2.40411
-2810.64
-670.853
-155.845
-35.286
-9.21707
-510.025
-158.204
-41.9875
-9.34249
-2.73442
-4676.64
-1118.51
-260.786
-59.3116
-15.4797
-853.669
-279.224
-72.6751
-17.9437
-4.80468
-6175.09
-1482.15
-347.542
-79.4335
-20.8019
-1004.84
-355.382
-95.1419
-23.6646
-6.30603
-7566.09
-1835.84
-434.301
-99.9893
-26.3665
-1136.75
-440.355
-120.654
-30.2723
-8.14762
-8662.64
-2169.7
-522.222
-121.786
-32.4354
-2011.36
-646.519
-166.497
-40.0048
-10.5995
-8180.69
-2042.23
-488.693
-113.268
-29.9957
-1451.87
-530.123
-142.341
-35.0935
-9.33655
-8854.35
-2220.1
-535.808
-125.323
-33.4875
-2347.42
-721.247
-182.171
-43.049
-11.3577
-9193.99
-2285.55
-552.546
-129.271
-34.5553
-2467.71
-757.336
-192.494
-42.3664
-11.7798
-688.257
-8137.56
-7434.47
-2652.55
1769.75
2994.19
8284.02
12206.8
1614.79
8830.59
-2434.24
2222.3
2410.69
5185.09
10161.7
14565.5
15396.4
19471.4
6291.81
8185.12
-19934.1
-13981.3
-3145.77
-2052.39
-1427.26
-1914.8
-2079.91
-11697.5
-9825.81
-8758.9
-8432.68
-6244.97
-4585.6
-6512.73
-3712.55
-3139.48
-3593.78
-2456.33
-19182.5
-9026.13
-2572.81
-4591.01
-7034.09
-4613.04
-4670.01
-3316.42
-1762.15
-2434.08
-2900.03
-3191.71
-19453
-12209.5
-11376.7
-7888.23
-7320.07
-8170.93
-2759.38
-3357.26
-4969.83
-13261.2
-10556.5
-7935.31
-6320.55
-4598.11
-8760.99
-5744.55
-4076.42
-2756.44
-1239.98
-2715.36
-2189.91
-1592.82
-967.351
-325.826
-1802.19
-1477.63
-1087.7
-663.715
-223.129
-1247.22
-1016.08
-742.599
-450.278
-150.78
-1688.04
-1388.93
-1024.55
-625.342
-210.037
-1812.99
-1474.08
-1076.59
-653.285
-219.056
-7082.3
-4990
-3496.32
-2763.3
-2504.11
-5045.8
-3406.49
-2165.99
-1577.83
-994.512
-5388.3
-3221.33
-2106.51
-1323.37
-569.426
-4188.07
-2653.25
-1624.89
-1044.78
-543.471
-2843.23
-1694.87
-984.854
-602.047
-263.935
-3538.7
-2563.13
-1707.83
-984.869
-329.79
-4390.85
-2817.77
-1795.63
-1030.33
-364.006
-2402.32
-1444.04
-857.811
-456.405
-149.52
-2529.43
-1899.03
-1296.28
-753.683
-249.545
-2804.09
-2038.39
-1349.73
-765.628
-249.868
-2003.37
-1519.58
-1043.34
-606.533
-199.642
-12011.4
-8496.77
-6173.37
-4715.6
-3763.64
-6415.82
-4469.28
-3075.13
-1923.63
-787.773
-2087.8
-1583.85
-1095.54
-646.55
-217.708
-3782.3
-2920.49
-2057.51
-1234.55
-421.621
-5585.44
-4211.59
-2946.08
-1793.18
-644.492
-3813.64
-2962.03
-2103.63
-1273.36
-437.897
-3927.86
-3097.2
-2221.28
-1346.93
-459.131
-2816.59
-2234.1
-1602.96
-966.346
-325.488
-1489.16
-1170.32
-828.362
-491.555
-163.179
-2102.68
-1692.56
-1224.68
-738.261
-246.865
-2411.54
-1868.31
-1310.29
-775.988
-258.923
-2700.56
-2131.88
-1521.45
-912.698
-306.451
-12717.7
-9712.11
-7274.72
-5577.1
-4067.36
-8151.59
-5573.82
-3954.06
-2622.33
-1182.69
-7999.48
-5984.69
-4183.05
-2761.83
-1203.59
-5980.7
-4335.71
-3056.75
-1923.65
-730.755
-5903.68
-4523.69
-3207.12
-1969.03
-704.725
-6147
-4432.89
-3108.34
-1947.49
-730.003
-2298.61
-1792.26
-1272.02
-765.869
-260.422
-2897.98
-2333.29
-1691.35
-1022.69
-342.974
-4164.23
-3266.39
-2329.82
-1406.17
-477.486
-6781.4
-13946.8
-14236.2
-39616.2
-13758.2
-52017.4
-7616.65
-18601.4
-13778.4
-10552.4
-23332.3
-19291.8
-13423.9
-12294.6
-25714.9
-19981.5
-5043.68
-3796.74
-9922.74
-6933.77
-11269.1
-8537
-30718.7
-23010.4
-18355.4
-13676.5
-19036.4
-11256.4
-1310.31
-4636.21
-48594.1
-62983
-29180.7
-36808.6
-63197.7
-80597.4
-30779.2
-36265.6
-36652.7
-50087.4
-29809.4
-40468
-20324.6
-30102.2
-2493.62
-670.554
-4431.83
-1522.9
-8478
-3870.46
-17301.3
-6308.05
-3689
-2149.07
-9176.66
-2923.57
-18943
-6006.37
-24502.7
-8334.06
-18774.3
-10021.1
-22152.1
-13129
-16491.1
-12013.2
-19078.1
-14551.4
-18275
-10782.5
-14306.3
-7697.6
-25277
-15829.2
-26403.1
-16600.8
-22622.9
-16633.8
-23985.9
-17330.2
-21546.2
-13429.3
-23025.4
-14283.9
-20457.6
-9297.63
-9175.68
-12485.1
-18239.7
-9595.09
-7060.3
-12513.8
-22579.3
-9433.22
-11002
-12649.8
-23922.6
-9686.28
-12292.8
-13263.8
-1430.87
-1346.68
-379.521
-1749.93
-5825.18
-6187.47
-3814.03
-7888.2
-3581.62
-4443.95
-6133.16
-11737.8
-12661
-9273.61
-10731.3
-13974.1
-9848.16
-7062.61
-8117.55
-8371.03
-16349.4
-15732.6
-13118.1
-11730.8
-8824.73
-8036.62
-17443.8
-1479.9
-1098.23
-871.158
-981.88
-5489.95
-4273.61
-4841.02
-4276.97
-1134.45
247.247
-5816.23
-4593.08
-9797.85
-10403.8
-9307.28
-8634.44
-7946.05
-5771.89
-10691.5
-8399.5
-10710.1
-8368.72
-11880.7
-11424.3
-10626.8
-7489.42
-8299.82
-4968.83
-7773.87
-4391.95
-12436.5
-7227.85
-9608.33
-4201.63
-8757.01
-9434.67
-13201
-16987.5
-14044.4
-20226.3
-7085.55
-7849.12
-8352.4
-1999.79
-8254.55
-15624
-8161.59
-17081.3
-14081.9
-25209.9
-14566
-26993.9
-6520.64
-13945.3
-6300.51
-15171.1
-9264.78
-6653.18
-13992.1
-5205.77
-8615.91
-1018.61
-11979.8
-578.556
-9343.15
-10439
-14787.5
-6585.8
-8024.88
-12527.2
-13282.1
-8713.39
-1041.46
-956.142
-784.097
-898.266
-3237.25
-2390.93
-3085.01
-2821.85
871.076
220.23
-3587.51
-3871.67
-10123.9
-9214.84
-7818.95
-6349.96
-4624.69
-3677.9
-6647.24
-5351.38
-7065.33
-5058.8
-17455.7
-14396.9
-8207.89
-6296.22
-6826.38
-4542.56
-6090.8
-3360.45
-7013.89
-2546.01
-5678.96
-9306.88
-4833.86
-9694.56
-9122.68
-11118.1
-10385.3
-14114.9
-893.82
-556.026
-530.391
-385.727
-3449.93
-2191.79
-2581.92
-1089.51
-842.348
-1336.24
-8137.48
-8600.57
-4118.14
-3526.97
-9879.65
-10562
-16154.9
-18835.2
698.492
4335.01
-7221.55
-7262.59
-6960.14
-5574.69
-881.895
-746.851
-908.244
-708.951
-1369.39
-702.618
-165.633
-46.4825
-7368.44
-2881.15
-6224.53
-2331.03
-8891.59
-3074.86
-10950.7
-3486.12
-5294.79
-10151.3
-7163.17
-10710
-9162.24
-12365.7
-12428.4
-13450.5
-4929.12
-8487.38
-4305.6
-8372.13
-8543.24
-10876.2
-9994.77
-11308.3
-14584.8
-14167.4
-16141.7
-14742.8
-5400.54
-8410.18
-6131.94
-8674.74
202.317
-1200.97
-6490.63
-3588.42
234.698
-1207.99
-6372.63
-3400.44
-146.224
-1316.7
-6533.51
-3749.76
-447.433
-1357.18
-6481.63
-3703.69
-875.599
-923.791
-758.218
-761.169
-1652.52
-1630.42
-901.49
-897.423
-7362.43
-6509.62
-2780.82
-2617.49
-3065.85
-4427.36
-3405.67
436.703
-826.466
-543.013
-904.222
-3440.4
2708.44
-76.562
-14680.3
-11690.2
-9623.95
-7496.73
-3805.49
-891.337
-750.034
-808.233
-915.136
-1570.78
-1200.81
-1127.99
-1443.05
-6453.97
-5984.24
-2785.91
-3365.19
-4509.15
-6220
-2557
-4447.35
-4147.03
-4407.76
-502.848
-916.043
-1474.46
-2265.96
-9471.61
-7386.41
-6965.84
-4823.55
-5474.49
-3717.27
-4199.28
-2819.18
-2335.17
-2394.54
-7376.92
-7033.02
-10179.6
-6430.73
-10012.2
-10322.2
-12701.5
-10452.9
-7750.54
-4601.14
-5515.38
-5299.97
-11330.4
-5304.84
-12266.5
-5526.83
-13792.9
-10352.5
-14740.9
-10849
-8680.97
-3549.87
-9394.86
-3707.31
-5487.61
-3898.63
-3359.14
-4405.39
-4544.87
-4521.3
-3311.19
-4618.73
-5799.75
-3537.37
-3392
-4722.23
-6789.25
-3526.98
-4182.67
-4562.43
-556.597
-489.074
-654.264
-521.102
-1064.69
-1272.39
-926.174
-769.911
-5588.79
-4871.91
-2169.05
-1020.53
-7185.3
-6544.33
-5330.93
-4581
-4132.56
-3485.94
-1294.95
-1371.04
-2149.49
-1058.83
-7952.14
-6459.64
-4277.19
-3368
-3085
-2148.85
-1979.92
-1117.28
-2189.39
-95.5481
-114.349
-45.499
-15.5832
4.14902
-64.8132
-36.8824
-0.685345
12.9701
-320.255
-123.825
2.34901
49.8802
-205.679
-103.768
26.9335
55.9241
-567.31
-199.331
19.7095
116.962
-476.694
-194.866
-41.4072
15.6636
-348.88
-134.008
-57.9907
-17.7739
-313.096
-106.966
-5.07064
30.9824
-928.956
-297.736
-92.1612
8.96401
-1117.65
-309.72
-108.037
90.6681
-856.321
-269.268
-54.4033
65.4235
-1000.21
-272.8
-118.205
72.4825
-894.044
-283.308
-48.9844
58.2218
-1175.86
-326.904
-105.296
112.563
-846.32
-259.386
-17.145
94.3829
-1183.75
-326.558
-100.162
121.22
-113.839
-40.8463
-7.79182
15.9
-96.7023
-30.0922
-15.7714
13.4106
-288.534
-103.495
-7.08978
47.3348
-236.709
-75.1888
-36.5031
36.7728
-628.382
-201.037
-24.3838
88.6582
-557.769
-167.008
-58.3658
74.1888
-657.875
-204.761
-30.5297
76.5738
-499.146
-145.605
-66.9527
82.0459
-992.343
-265.5
-107.458
125.618
-69.3395
-21.0427
-5.86234
10.8776
-29.3224
-11.3609
-2.93318
1.11184
-211.289
-62.3616
-29.5497
22.1738
-97.1562
-34.5857
-15.045
-0.137116
-384.975
-108.172
-47.7961
38.5454
-200.487
-63.224
-23.1774
0.894586
-591.593
-157.947
-59.6573
61.7052
-357.193
-97.231
-31.6905
1.9353
-791.933
-198.43
-106.456
39.9101
-481.677
-119.481
-49.1015
-5.13101
-1064.51
-264.127
-121.072
47.5188
-494.294
-122.886
-46.9069
-2.47933
-1011.19
-249.897
-128.719
34.2747
-535.675
-130.412
-50.1507
-4.93092
-1082.34
-261.518
-108.94
65.8677
-463.206
-109.335
-34.6253
6.08608
-1065.41
-248.297
-95.2451
74.1888
-439.042
-93.7952
-23.281
12.8843
0.871636
-0.543101
-0.422763
-0.22584
-0.132552
-1.68173
-1.52356
-0.824385
-0.403371
-0.229938
2.5365
-1.30138
-1.00448
-0.532246
-0.31113
-4.24444
-3.58635
-1.90571
-0.924485
-0.524505
4.71671
-1.54343
-1.24799
-0.661193
-0.385762
-6.50407
-4.94189
-2.57152
-1.23684
-0.698841
-3.88425
-2.65759
-1.36027
-0.648545
-0.364179
1.01912
-0.872602
-0.619088
-0.319659
-0.184115
1.04448
-2.14641
-1.39731
-0.711059
-0.409266
2.4796
-0.556065
-0.495654
-0.265246
-0.154765
-2.31594
-3.34895
-1.83805
-0.895659
-0.508699
1.71219
-0.718157
-0.532493
-0.276951
-0.160577
4.55113
-0.706647
-0.741696
-0.406656
-0.238811
2.94581
-0.425599
-0.427932
-0.230962
-0.13473
9.37322
0.813463
-0.146146
-0.1477
-0.0982228
5.87453
0.55359
-0.0329636
-0.0570261
-0.0398186
1.59036
-0.273335
-0.28683
-0.15994
-0.0951775
0.303254
-0.386573
-0.262448
-0.137165
-0.0803749
2.80845
-1.06035
-0.822619
-0.434764
-0.254367
0.0802299
-1.26589
-0.765376
-0.386603
-0.22368
6.8203
-0.911845
-0.933906
-0.509529
-0.300197
-0.967389
-2.06142
-1.14457
-0.562551
-0.321893
-2.17225
-2.7646
-1.45872
-0.70332
-0.398536
-3.1084
-1.96894
-0.965913
-0.458534
-0.259149
-2.70621
-1.74921
-0.85072
-0.401011
-0.225315
58.0912
-170.605
256.415
-405.805
571.798
-504.39
1129.01
-293.818
1554.82
535.872
-479.752
-1205.33
923.149
606.144
-1168.83
-2068.33
-1635.37
-2452.65
-867.757
-211.555
-49.4005
-11.3127
-2.96818
-200.859
-122.121
-17.1153
-4.9956
-2.35891
-2676.42
-646.899
-151.46
-34.5095
-9.06793
-466.972
-153.498
-41.4957
-9.33827
-2.7368
-4481.86
-1082.92
-254.207
-58.1416
-15.2566
-822.472
-276.233
-72.4764
-17.9412
-4.81143
-5975.87
-1444.13
-340.362
-78.1416
-20.5556
-1030.12
-360.199
-96.0182
-23.8056
-6.33634
-7420.91
-1804.5
-428.03
-98.829
-26.1441
-1233.88
-453.985
-122.629
-30.5518
-8.19709
-8646.97
-2162.29
-520.235
-121.364
-32.3498
-2056.94
-654.77
-167.85
-40.2159
-10.6354
-8125.65
-2024.5
-484.622
-112.467
-29.8396
-1557.44
-545.52
-144.621
-35.4264
-9.39447
-8855.62
-2218.31
-535.129
-125.16
-33.453
-2360.31
-723.965
-182.643
-43.1269
-11.3716
-9196.25
-2285.41
-552.41
-129.233
-34.5471
-2469.21
-757.719
-192.563
-42.3783
-11.782
-530.962
-7940.96
-6856.51
-2193.31
-1642.79
-801.223
-3808.49
-2469.8
-7186.26
-6602.18
-3495.69
-2531.55
-120.722
-203.614
-383.727
-685.16
-1137.45
-1753.95
-92.5919
-219.15
-492.095
-935.285
-1556.45
-2322.34
-87.6909
-39.6215
-164.277
-107.714
-330.074
-260.936
-607.341
-541.392
-970.762
-892.79
-1446.31
-1234.16
-2441.61
-3090.15
-3758.23
-6318.32
-7684.84
-8828.44
-3125.85
-3786.93
-4113.06
-4081.57
-3797.05
-3540.61
-108.342
-91.0259
-68.5251
-42.4671
-14.3748
-182.454
-153.008
-114.968
-71.143
-24.0619
-343.208
-287.181
-215.307
-133.006
-44.9445
-611.301
-510.036
-381.318
-235.068
-79.3474
-1011.27
-840.371
-625.939
-384.84
-129.738
-1551.08
-1281.47
-949.581
-581.863
-195.888
-83.0218
-69.677
-52.3957
-32.443
-10.9765
-196.148
-164.268
-123.261
-76.1951
-25.7563
-439.603
-367.328
-275.03
-169.734
-57.3268
-833.34
-694.247
-518.328
-319.226
-107.707
-1381.78
-1146.49
-852.813
-523.89
-176.555
-2051.54
-1693.11
-1253.58
-767.83
-258.473
-78.7533
-66.2223
-49.8956
-30.9428
-10.4778
-35.5957
-29.9445
-22.5717
-14.0026
-4.74237
-147.346
-123.708
-93.06
-57.6376
-19.5035
-96.6751
-81.2297
-61.1537
-37.8996
-12.8287
-295.576
-247.677
-185.949
-114.992
-38.8788
-233.843
-196.125
-147.378
-91.2014
-30.8461
-542.603
-453.419
-339.485
-209.498
-70.753
-484.005
-404.755
-303.256
-187.23
-63.2464
-864.366
-719.468
-536.646
-330.241
-111.373
-795.542
-662.691
-494.588
-304.45
-102.682
-1280.5
-1059.03
-785.271
-481.255
-161.995
-1093.77
-905.37
-671.588
-411.531
-138.479
-2141.63
-1754.54
-1291.3
-788.298
-265.171
-2675.2
-2164.55
-1578.97
-960.699
-323.679
-3183.41
-2528.13
-1823.7
-1108.8
-377.033
-5152.42
-3982.22
-2840.99
-1743.85
-614.009
-5889.06
-4390.53
-3108.3
-1958.69
-748.948
-6472.98
-4716.17
-3325.72
-2138.42
-867.156
-2742.85
-2248.03
-1655.21
-1010.76
-340.019
-3292.19
-2674.16
-1956.19
-1191.39
-401.027
-3527.74
-2831.28
-2055.53
-1250.17
-422.425
-3425.24
-2701.72
-1944.16
-1184.96
-405.492
-3063.21
-2350.72
-1674.63
-1032.02
-366.175
-2747.5
-2054.44
-1451.26
-906.409
-334.671
-123.829
-214.211
-405.724
-725.42
-1206.07
-1856.28
-96.5866
-232.979
-520.878
-985.78
-1632.65
-2418.94
-90.3146
-41.4978
-173.665
-115.112
-351.058
-279.897
-649.37
-584.239
-1051.21
-996.813
-1575.94
-1428.59
-2569.7
-3233.54
-3910.74
-6426.12
-7726.57
-8836.63
-3226
-3868.82
-4162.1
-4091.95
-3782.28
-3530.77
-111.169
-93.4428
-70.3782
-43.6329
-14.7727
-192.103
-161.263
-121.303
-75.1307
-25.4237
-363.263
-304.363
-228.511
-141.329
-47.7886
-648.077
-541.616
-405.643
-250.428
-84.6017
-1074.11
-894.494
-667.75
-411.305
-138.802
-1645.29
-1363.11
-1013.03
-622.212
-209.747
-86.6571
-72.7847
-54.7785
-33.9421
-11.4882
-208.744
-175.047
-131.535
-81.4054
-27.5358
-465.862
-389.846
-292.349
-180.658
-61.061
-879.52
-733.959
-548.962
-338.593
-114.336
-1451.73
-1206.9
-899.615
-553.582
-186.739
-2140.76
-1770.73
-1314.14
-806.466
-271.767
-81.1388
-68.2592
-51.4556
-31.9233
-10.8123
-37.3
-31.3983
-23.6838
-14.701
-4.98053
-155.887
-131.006
-98.6528
-61.1549
-20.7039
-103.399
-86.9691
-65.5476
-40.6605
-13.7705
-314.685
-264.025
-198.494
-122.889
-41.5756
-251.095
-210.871
-158.682
-98.3117
-33.273
-580.946
-486.294
-364.767
-225.443
-76.2029
-523.095
-438.271
-329.032
-203.486
-68.8028
-937.824
-782.515
-585.178
-360.87
-121.847
-890.252
-743.696
-556.729
-343.562
-116.038
-1399.41
-1161.63
-864.65
-531.553
-179.234
-1270.91
-1056.99
-787.964
-484.812
-163.508
-2260.73
-1858.86
-1373.22
-840.828
-283.304
-2810.73
-2285.27
-1675.25
-1023.22
-345.446
-3331.5
-2663.37
-1933.96
-1181.73
-402.803
-5270.82
-4100.82
-2945.26
-1817.35
-641.618
-5950.22
-4459.9
-3175.05
-2009.99
-770.478
-6491.21
-4739.2
-3349.43
-2157.76
-875.788
-2836.4
-2330.42
-1720.26
-1052.66
-354.519
-3370.42
-2744.68
-2013.09
-1228.68
-414.068
-3577.3
-2878.35
-2095.24
-1277.11
-432.075
-3440.72
-2720.36
-1962.62
-1198.98
-410.942
-3055.49
-2348.71
-1676.68
-1035.63
-368.238
-2740.96
-2050.66
-1449.8
-906.493
-335.092
-19883.8
-13992.2
-3354.71
-2252.25
-1737.31
-2241.98
-2368.29
-12431.5
-13134.5
-10257.7
-11665.6
-6019.38
-9347.02
-4389.98
-4661.41
-3230.66
-19734.6
-9889.8
-3211
-5300.79
-7666.58
-4983.68
-5078.08
-3721.41
-2163.09
-2917.91
-3698.31
-3732.02
-19327.5
-12286.1
-11827.5
-8126.07
-7638.55
-8553.83
-3217.83
-3775.03
-5430.73
-13256.7
-10584.9
-7985.83
-6388.82
-4659.16
-8798.41
-5788.97
-4120.98
-2793.16
-1255.56
-2913.44
-2366.83
-1734.16
-1059.22
-357.829
-1986.72
-1637.94
-1212.55
-743.242
-250.472
-1531.68
-1261.43
-932.328
-570.46
-191.973
-1987.15
-1645.95
-1222.62
-750.47
-252.856
-2080.46
-1707.47
-1258.97
-769.689
-259.115
-8448.43
-6462.8
-4807.66
-3771.36
-3144.85
-9100.32
-7246.86
-5379.28
-3884.38
-2053.3
-7113.36
-4829.37
-3412.67
-2186.32
-868.004
-8140.94
-6263.01
-4562
-3073.62
-1352.73
-4939.78
-3824.96
-2714.22
-1635.36
-555.243
-7105.95
-5139.81
-3590.66
-2172.46
-759.955
-3707.8
-2933.61
-2105.77
-1270.94
-428.03
-3920
-3089.85
-2212.07
-1333.63
-449.246
-2758.33
-2201.73
-1588.59
-959.722
-322.29
-13001.7
-9611.29
-7213.8
-5539.27
-4266.54
-7373.74
-5395.5
-3852.68
-2452.19
-986.974
-2700.66
-2132.51
-1532.18
-928.893
-315.824
-4469.23
-3542.02
-2557.55
-1561.08
-536.154
-6243.94
-4839.4
-3471.42
-2147.69
-773.739
-4181.71
-3303.07
-2383.81
-1459.55
-504.145
-4320.23
-3451.74
-2507.24
-1534.35
-524.986
-3201.54
-2578.01
-1877.28
-1144.29
-387.421
-1872.33
-1513.73
-1102.48
-669.148
-224.828
-2551.43
-2084.03
-1530.57
-933.576
-314.137
-3163.47
-2531.61
-1832.35
-1110.96
-374.702
-3211.89
-2586.28
-1881.9
-1145.42
-387.189
-12755.6
-9844.03
-7461.1
-5784.17
-4261.45
-8291.82
-5729.18
-4102.39
-2738.32
-1232.42
-8623.13
-6621.87
-4759.66
-3187.65
-1384.18
-6258.68
-4620.31
-3308.71
-2103.2
-798.264
-6244.05
-4856.87
-3493.07
-2166.54
-778.234
-6582.18
-4860.03
-3479.53
-2207.6
-829.04
-2734.08
-2180.68
-1581.31
-966.357
-330.292
-3288.76
-2677.28
-1962.34
-1196.79
-403.14
-4611.88
-3674.05
-2660.25
-1623.29
-553.837
-316.072
-927.614
-1537.13
-2167.53
-2805.68
-3429.29
-3116.44
-8286.93
-7657.6
-2965.56
-10372.7
-8835.8
-10049.4
-11053.5
-2878.32
-1842.6
-6717.66
-3672.95
-12251.1
-9095.84
521.697
-2494.09
-6802.16
-6164.7
-2343.16
-8656.21
-7001.05
-8236.74
-9114.1
-2377.42
-1023.1
-5817.01
-1735.42
-9793.83
-5385.34
2327.53
-1766.8
-5002.7
-4476.86
-1647.32
-6598.81
-3843.72
-6389.86
-6823.89
-1751.43
-945.877
-4012.81
-1872.62
-7451.32
-1682.75
2494.37
-1234.92
-3693.65
-3321.56
-1180.78
-4774.57
-1997.22
-5011.73
-5631.28
-1268.21
-1018.2
-2854.99
-1954.77
-6254.25
32.3645
1882.49
-945.878
-2986.95
-2701.69
-937.996
-3589.97
-1512.02
-4266.36
-5260.98
-956.829
-1143.76
-1934.46
-1922.21
-5294.52
223.967
361.093
-799.945
-2537.98
-2379.26
-812.262
-3192.55
-1857.98
-3791.05
-4918.18
-699.386
-900.643
-1476.11
-1853.01
-5238.17
-904.06
-569.9
-1407.98
-3414.4
-5380.11
-2099.02
-5467.26
-9627.48
-7748.34
-11071.6
-919.023
-554.223
-3665.13
-1936.1
-881.721
-8725.76
-4137.72
-1290.96
-3134.4
-4636.99
-1790.77
-4959.72
-8517.4
-6842.63
-9170.6
-926.755
-445.723
-3744.76
-1728.39
-45.854
-8337.61
-2798.62
-1097.87
-2672.18
-3650.33
-1383.7
-4370.12
-7231.66
-5600.74
-7670.01
-786.208
-506.951
-3046.68
-1746.09
-287.14
-6294.45
-2517.34
-898.335
-2299.07
-2857.31
-1059.14
-3884.07
-6170.01
-4736.54
-6592.4
-677.867
-497.375
-2658.12
-1743.11
-203.464
-5509.34
-2406.35
-771.405
-1982.14
-2407.39
-877.05
-3343.08
-5378.94
-4122.85
-6023.9
-600.181
-549.037
-2275.17
-1860.69
-395.245
-5047.72
-2433.09
-689.682
-1698.18
-2149.79
-774.783
-2982.54
-5223.22
-3687.33
-5686.13
-604.516
-645.141
-1952.94
-1762.18
-675.408
-5140.38
-2758.23
7115.93
8990.31
18396.7
27089.9
27684.1
47559.1
21048.1
53336.3
16993.1
37260.1
25440.3
38729.5
22651.6
30031.9
8596.36
9809.05
17967.1
20629.9
22838.2
22696.7
17801.9
21789.3
26041.3
23292.7
6012.31
4703.4
7351.21
5087.79
15218.8
12447.7
25785.4
19021.6
19813.2
20765.7
22446.5
21978.2
8347.46
6278.92
46270.4
61979.3
30104
36914.1
61328
79775.3
31857.4
36512.6
34755.6
49098.2
30610.4
40429.1
18164.1
29031.3
3430.28
1192.06
3492.04
1287.38
10907.2
4453.93
14812.8
5524.49
10841.3
4119.22
11125.6
3605.93
18775
6035.5
24200.2
8248.11
27996.8
14203.6
25703.7
15218.6
25680.1
16640.7
22692.6
16742.1
20763.4
12455.1
20875.2
10943.7
26607.1
16749.6
26723.6
16847.8
24052.7
17586.5
24366.8
17585.6
22400.6
14178.2
23210.9
14486.6
21475.6
9572.58
10261.1
12847.2
21508.8
10538.3
9134.26
13260.5
22735.2
9458.91
11487
12805.3
23893.7
9668.94
12421
13304
4414.24
4795.83
1554.15
3147.91
13470.4
14300.1
5416.27
10107.1
17323.3
18955.4
8962.62
15470.6
12197.3
51.9866
14956.6
19614.4
11313.3
-354.59
6652.39
13927.8
23114.1
17973.9
11481.4
14453.5
13354.9
12156.4
19399.5
3918.18
3050.95
2262.22
2239.28
11984.1
9586.37
7706.74
7181.72
14619.6
11501.3
9948.5
8729.8
5343.73
7064.72
11542.6
12217.2
15476.1
13887.5
17671.4
14836.7
13288.5
11161.6
9525.69
9227.51
12840.7
8968.65
12179.6
7772.3
11020.3
6689.52
13756.5
8578.97
10810
3697.26
9619.59
9563
13084.8
16053.3
14524.8
20327.3
7966.96
8001.72
9829.56
1621.34
8694.97
15809.3
8294.8
17156
14439.8
25280.3
14687.7
27062.9
6947.59
14094.3
6425.55
15227.1
9809.42
6655.1
14092.5
5045.18
9587.85
378.322
12045
-502.414
9598.31
10501
14833.7
6561.44
8106.98
12554.7
13299.9
8712.89
2197.14
1841.38
1494.95
1662.53
1450.98
1204.96
7237.86
5256.95
4064.11
4958.8
3491.94
2702.05
8185.76
6300.19
5471.38
5811.66
4119.65
3612.43
5671.82
4329.37
3969.32
10140.2
6535.19
4999.09
10347.8
6502.4
4673.41
10726.4
7358.88
5884.28
7796.99
4444.84
3103.16
14448.1
10945.4
8451.19
10012.4
7294.13
5218.58
9700.86
6511.33
4368.9
8817.84
5510.6
3508.39
10149.4
5114.02
2396.91
11341.2
15115
9190.12
11625.4
12844.5
18486.5
11682
16546.4
55.0122
605.53
-411.743
119.925
3066.95
3371.34
1413.98
894.415
992.289
2647.74
9920.35
14153.2
6612.32
3959.6
10969.1
10911.1
17445.3
19238.4
-464.778
-4298.44
8109.86
7567.94
7483.14
5725.63
903.303
486.648
658.621
328.09
2109.58
201.705
-44.0177
-618.633
9278.86
2188.16
6556.61
1693.88
9295.44
2750.65
11132
3372.88
9798.8
12297.9
8945.36
11923.2
16072.2
16308.9
15220.1
15328.7
5876.19
9030.71
6835.64
9013.98
9405.38
11442.2
10263.4
11466.7
15822.2
14993.3
16503.7
14967.4
5871.12
8691.44
6287.32
8755.91
-300.626
848.554
6444.86
3295.69
-731.735
499.649
5971.27
2887.88
100.475
1089.53
6544.74
3589.6
436.715
1271.14
6490.01
3651.46
-587.216
-659.799
130.658
-36.4342
-2608.28
-2544.18
-231.537
-447.662
-558.897
-1727.13
1244.76
561.871
-9795.2
-10043.6
-5090.59
-3875.85
-615.317
-10860.9
-10320
-3791.5
-5509.15
-997.706
11103.8
8331.3
6761.68
5715.84
2814.22
-596.109
-477.567
-93.434
-57.4884
-2005.1
-1703.57
-272.676
-159.83
-2067.69
-2186.61
219.09
275.51
-4893.9
-1730.88
-7263.14
-3930.3
-2957.72
-1895.46
-3318.71
-2528.08
-70.6684
452.108
4084.72
2500.24
1344.13
-585.109
979.102
-502.978
1166.85
69.9832
991.607
1001.9
5104.78
4405.21
9542.25
5625.97
8323.1
7866.83
12513.2
9801
6894.31
3852.71
3417.71
3155.28
11216.7
4886.59
12264.4
5446.09
13928.2
10037.5
14811.4
10809.7
8388.21
3139.08
9332.25
3613.88
4682.99
3285.97
2701.58
3800.92
2887.66
2945.16
2245.53
3499.08
5441.86
3174.61
3053.68
4370.23
6691.25
3425.32
4080.79
4468.53
-397.715
-358.534
-378.356
-51.6706
-133.407
-137.722
-1511.34
-1409.23
-1324.41
-169.336
-385.265
-366.06
-2048.99
-1966.66
-1861.48
194.852
-392.612
-486.625
-674.831
-552.516
-271.403
-2302.15
-2202.28
-1929.48
-1749.42
-1816.59
-1701.81
-2195.91
-2075.28
-1894.93
588.863
-170.538
-220.722
3565.79
2000.15
1103.06
-239.579
-929.979
-1263.1
-324.7
-1090.46
-1380.97
-150.043
-901.463
-1085
1130.67
-213.249
-359.443
-8.96733
-9.92201
-9.36087
-14.1195
-155.959
-67.3016
-44.8037
-32.2479
10.3373
-15.9449
-57.9463
-71.722
-251.399
-119.495
-122.766
-98.4805
173.936
23.1535
-84.9937
-135.73
-37.9934
-66.2044
-84.3258
-78.8754
42.0413
-29.1858
-23.6228
-20.6907
186.323
35.992
-30.5998
-48.2504
673.586
169.441
25.8114
-44.8851
961.667
239.751
75.1882
-97.4025